n -t * -s 0  -x 995 -y 556 -Z 0 -z 30  -v circle -c green
n -t * -s 1  -x 482 -y 637 -Z 0 -z 30  -v circle -c green
n -t * -s 2  -x 549 -y 950 -Z 0 -z 30  -v circle -c green
n -t * -s 3  -x 708 -y 473 -Z 0 -z 30  -v circle -c green
n -t * -s 4  -x 233 -y 949 -Z 0 -z 30  -v circle -c green
n -t * -s 5  -x 354 -y 555 -Z 0 -z 30  -v circle -c green
n -t * -s 6  -x 432 -y 362 -Z 0 -z 30  -v circle -c green
n -t * -s 7  -x 587 -y 512 -Z 0 -z 30  -v circle -c green
n -t * -s 8  -x 456 -y 471 -Z 0 -z 30  -v circle -c green
n -t * -s 9  -x 248 -y 174 -Z 0 -z 30  -v circle -c green
n -t * -s 10  -x 388 -y 272 -Z 0 -z 30  -v circle -c green
n -t * -s 11  -x 475 -y 985 -Z 0 -z 30  -v circle -c green
V -t * -v 1.0a5 -a 0
W -t * -x 1000 -y 1000
A -t * -n 1 -p 0 -o 0xffffffff -c 31 -a 1
A -t * -h 1 -m 2147483647 -s 0
n -t 0.000000 -s 1 -x 482.000000 -y 637.000000 -U 0.741025 -V -24.989015 -T 24.290673
n -t 0.000000 -s 4 -x 233.000000 -y 949.000000 -U 0.737932 -V -4.945246 -T 90.794273
n -t 0.000000 -s 5 -x 354.000000 -y 555.000000 -U -17.365367 -V -24.463116 -T 14.511643
n -t 0.000000 -s 8 -x 456.000000 -y 471.000000 -U -14.742378 -V -20.190648 -T 21.841795
n -t 0.000000 -s 11 -x 475.000000 -y 985.000000 -U 0.130845 -V -4.998288 -T 191.065434
n -t 0.500000 -s 0 -x 995.000000 -y 556.000000 -U -22.964628 -V -9.880580 -T 25.909411
n -t 0.500000 -s 3 -x 708.000000 -y 473.000000 -U -24.761767 -V -7.928109 -T 9.207744
n -t 0.500000 -s 6 -x 432.000000 -y 362.000000 -U -13.816577 -V 9.904655 -T 24.029106
n -t 0.500000 -s 7 -x 587.000000 -y 512.000000 -U 11.759304 -V -22.061704 -T 9.609412
n -t 0.500000 -s 10 -x 388.000000 -y 272.000000 -U 23.745433 -V 10.590298 -T 12.086535
v -t 0.5 -e sim_annotation 0.5 1 Starting CBR0 node0 to node1
v -t 0.5 -e sim_annotation 0.5 2 Starting CBR1 node10 to node9
n -t 0.700000 -s 2 -x 549.000000 -y 950.000000 -U -1.151030 -V -19.966851 -T 42.570559
n -t 0.700000 -s 9 -x 248.000000 -y 174.000000 -U 13.833688 -V 14.443998 -T 29.493220
+ -t 1.000000000 -s 0 -d -1 -p tcp -e 40 -c 2 -a 0 -i 0 -k AGT 
- -t 1.000000000 -s 0 -d -1 -p tcp -e 40 -c 2 -a 0 -i 0 -k AGT
h -t 1.000000000 -s 0 -d -1 -p tcp -e 40 -c 2 -a 0 -i 0 -k AGT
+ -t 1.000000000 -s 10 -d -1 -p tcp -e 40 -c 2 -a 0 -i 1 -k AGT 
- -t 1.000000000 -s 10 -d -1 -p tcp -e 40 -c 2 -a 0 -i 1 -k AGT
h -t 1.000000000 -s 10 -d -1 -p tcp -e 40 -c 2 -a 0 -i 1 -k AGT
+ -t 1.000000000 -s 0 -d -1 -p AODV -e 48 -c 2 -a 0 -i 0 -k RTR 
- -t 1.000000000 -s 0 -d -1 -p AODV -e 48 -c 2 -a 0 -i 0 -k RTR
h -t 1.000000000 -s 0 -d -1 -p AODV -e 48 -c 2 -a 0 -i 0 -k RTR
+ -t 1.000000000 -s 10 -d -1 -p AODV -e 48 -c 2 -a 0 -i 0 -k RTR 
- -t 1.000000000 -s 10 -d -1 -p AODV -e 48 -c 2 -a 0 -i 0 -k RTR
h -t 1.000000000 -s 10 -d -1 -p AODV -e 48 -c 2 -a 0 -i 0 -k RTR
+ -t 1.000075000 -s 10 -d -1 -p AODV -e 106 -c 2 -a 0 -i 0 -k MAC 
- -t 1.000075000 -s 10 -d -1 -p AODV -e 106 -c 2 -a 0 -i 0 -k MAC
h -t 1.000075000 -s 10 -d -1 -p AODV -e 106 -c 2 -a 0 -i 0 -k MAC
+ -t 1.000395000 -s 0 -d -1 -p AODV -e 106 -c 2 -a 0 -i 0 -k MAC 
- -t 1.000395000 -s 0 -d -1 -p AODV -e 106 -c 2 -a 0 -i 0 -k MAC
h -t 1.000395000 -s 0 -d -1 -p AODV -e 106 -c 2 -a 0 -i 0 -k MAC
r -t 1.000923310 -s 6 -d -1 -p AODV -e 48 -c 2 -a 0 -i 0 -k MAC
r -t 1.000923593 -s 9 -d -1 -p AODV -e 48 -c 2 -a 0 -i 0 -k MAC
r -t 1.000923595 -s 8 -d -1 -p AODV -e 48 -c 2 -a 0 -i 0 -k MAC
r -t 1.000948310 -s 6 -d -1 -p AODV -e 48 -c 2 -a 0 -i 0 -k RTR
r -t 1.000948593 -s 9 -d -1 -p AODV -e 48 -c 2 -a 0 -i 0 -k RTR
+ -t 1.000948593 -s 9 -d 10 -p AODV -e 44 -c 2 -a 0 -i 0 -k RTR 
- -t 1.000948593 -s 9 -d 10 -p AODV -e 44 -c 2 -a 0 -i 0 -k RTR
h -t 1.000948593 -s 9 -d 10 -p AODV -e 44 -c 2 -a 0 -i 0 -k RTR
r -t 1.000948595 -s 8 -d -1 -p AODV -e 48 -c 2 -a 0 -i 0 -k RTR
+ -t 1.001363593 -s 9 -d -1 -p ARP -e 86 -c 2 -a 0 -i 0 -k MAC 
- -t 1.001363593 -s 9 -d -1 -p ARP -e 86 -c 2 -a 0 -i 0 -k MAC
h -t 1.001363593 -s 9 -d -1 -p ARP -e 86 -c 2 -a 0 -i 0 -k MAC
r -t 1.002052185 -s 10 -d -1 -p ARP -e 28 -c 2 -a 0 -i 0 -k MAC
+ -t 1.002647185 -s 10 -d -1 -p RTS -e 44 -c 2 -a 0 -i 0 -k MAC 
- -t 1.002647185 -s 10 -d -1 -p RTS -e 44 -c 2 -a 0 -i 0 -k MAC
h -t 1.002647185 -s 10 -d -1 -p RTS -e 44 -c 2 -a 0 -i 0 -k MAC
r -t 1.002999778 -s 9 -d -1 -p RTS -e 44 -c 2 -a 0 -i 0 -k MAC
+ -t 1.003009778 -s 9 -d -1 -p CTS -e 38 -c 2 -a 0 -i 0 -k MAC 
- -t 1.003009778 -s 9 -d -1 -p CTS -e 38 -c 2 -a 0 -i 0 -k MAC
h -t 1.003009778 -s 9 -d -1 -p CTS -e 38 -c 2 -a 0 -i 0 -k MAC
+ -t 1.003294612 -s 8 -d -1 -p AODV -e 48 -c 2 -a 0 -i 0 -k RTR 
- -t 1.003294612 -s 8 -d -1 -p AODV -e 48 -c 2 -a 0 -i 0 -k RTR
h -t 1.003294612 -s 8 -d -1 -p AODV -e 48 -c 2 -a 0 -i 0 -k RTR
r -t 1.003314371 -s 10 -d -1 -p CTS -e 38 -c 2 -a 0 -i 0 -k MAC
+ -t 1.003324371 -s 10 -d -1 -p ARP -e 86 -c 2 -a 0 -i 0 -k MAC 
- -t 1.003324371 -s 10 -d -1 -p ARP -e 86 -c 2 -a 0 -i 0 -k MAC
h -t 1.003324371 -s 10 -d -1 -p ARP -e 86 -c 2 -a 0 -i 0 -k MAC
r -t 1.004012964 -s 9 -d -1 -p ARP -e 28 -c 2 -a 0 -i 0 -k MAC
+ -t 1.004022964 -s 9 -d -1 -p ACK -e 38 -c 2 -a 0 -i 0 -k MAC 
- -t 1.004022964 -s 9 -d -1 -p ACK -e 38 -c 2 -a 0 -i 0 -k MAC
h -t 1.004022964 -s 9 -d -1 -p ACK -e 38 -c 2 -a 0 -i 0 -k MAC
r -t 1.004327556 -s 10 -d -1 -p ACK -e 38 -c 2 -a 0 -i 0 -k MAC
+ -t 1.004616964 -s 9 -d -1 -p RTS -e 44 -c 2 -a 0 -i 0 -k MAC 
- -t 1.004616964 -s 9 -d -1 -p RTS -e 44 -c 2 -a 0 -i 0 -k MAC
h -t 1.004616964 -s 9 -d -1 -p RTS -e 44 -c 2 -a 0 -i 0 -k MAC
r -t 1.004969556 -s 10 -d -1 -p RTS -e 44 -c 2 -a 0 -i 0 -k MAC
+ -t 1.004979556 -s 10 -d -1 -p CTS -e 38 -c 2 -a 0 -i 0 -k MAC 
- -t 1.004979556 -s 10 -d -1 -p CTS -e 38 -c 2 -a 0 -i 0 -k MAC
h -t 1.004979556 -s 10 -d -1 -p CTS -e 38 -c 2 -a 0 -i 0 -k MAC
r -t 1.005284149 -s 9 -d -1 -p CTS -e 38 -c 2 -a 0 -i 0 -k MAC
+ -t 1.005294149 -s 9 -d 10 -p AODV -e 102 -c 2 -a 0 -i 0 -k MAC 
- -t 1.005294149 -s 9 -d 10 -p AODV -e 102 -c 2 -a 0 -i 0 -k MAC
h -t 1.005294149 -s 9 -d 10 -p AODV -e 102 -c 2 -a 0 -i 0 -k MAC
r -t 1.006110742 -s 10 -d 10 -p AODV -e 44 -c 2 -a 0 -i 0 -k MAC
+ -t 1.006120742 -s 10 -d -1 -p ACK -e 38 -c 2 -a 0 -i 0 -k MAC 
- -t 1.006120742 -s 10 -d -1 -p ACK -e 38 -c 2 -a 0 -i 0 -k MAC
h -t 1.006120742 -s 10 -d -1 -p ACK -e 38 -c 2 -a 0 -i 0 -k MAC
+ -t 1.006135742 -s 10 -d 9 -p tcp -e 40 -c 2 -a 0 -i 1 -k RTR 
- -t 1.006135742 -s 10 -d 9 -p tcp -e 40 -c 2 -a 0 -i 1 -k RTR
h -t 1.006135742 -s 10 -d 9 -p tcp -e 40 -c 2 -a 0 -i 1 -k RTR
r -t 1.006425335 -s 9 -d -1 -p ACK -e 38 -c 2 -a 0 -i 0 -k MAC
+ -t 1.006814742 -s 10 -d -1 -p RTS -e 44 -c 2 -a 0 -i 0 -k MAC 
- -t 1.006814742 -s 10 -d -1 -p RTS -e 44 -c 2 -a 0 -i 0 -k MAC
h -t 1.006814742 -s 10 -d -1 -p RTS -e 44 -c 2 -a 0 -i 0 -k MAC
r -t 1.007167335 -s 9 -d -1 -p RTS -e 44 -c 2 -a 0 -i 0 -k MAC
+ -t 1.007177335 -s 9 -d -1 -p CTS -e 38 -c 2 -a 0 -i 0 -k MAC 
- -t 1.007177335 -s 9 -d -1 -p CTS -e 38 -c 2 -a 0 -i 0 -k MAC
h -t 1.007177335 -s 9 -d -1 -p CTS -e 38 -c 2 -a 0 -i 0 -k MAC
r -t 1.007481928 -s 10 -d -1 -p CTS -e 38 -c 2 -a 0 -i 0 -k MAC
+ -t 1.007491928 -s 10 -d 9 -p tcp -e 98 -c 2 -a 0 -i 1 -k MAC 
- -t 1.007491928 -s 10 -d 9 -p tcp -e 98 -c 2 -a 0 -i 1 -k MAC
h -t 1.007491928 -s 10 -d 9 -p tcp -e 98 -c 2 -a 0 -i 1 -k MAC
r -t 1.008276521 -s 9 -d 9 -p tcp -e 40 -c 2 -a 0 -i 1 -k MAC
+ -t 1.008286521 -s 9 -d -1 -p ACK -e 38 -c 2 -a 0 -i 0 -k MAC 
- -t 1.008286521 -s 9 -d -1 -p ACK -e 38 -c 2 -a 0 -i 0 -k MAC
h -t 1.008286521 -s 9 -d -1 -p ACK -e 38 -c 2 -a 0 -i 0 -k MAC
r -t 1.008301521 -s 9 -d 9 -p tcp -e 40 -c 2 -a 0 -i 1 -k AGT
+ -t 1.008301521 -s 9 -d -1 -p ack -e 40 -c 2 -a 0 -i 2 -k AGT 
- -t 1.008301521 -s 9 -d -1 -p ack -e 40 -c 2 -a 0 -i 2 -k AGT
h -t 1.008301521 -s 9 -d -1 -p ack -e 40 -c 2 -a 0 -i 2 -k AGT
+ -t 1.008301521 -s 9 -d 10 -p ack -e 40 -c 2 -a 0 -i 2 -k RTR 
- -t 1.008301521 -s 9 -d 10 -p ack -e 40 -c 2 -a 0 -i 2 -k RTR
h -t 1.008301521 -s 9 -d 10 -p ack -e 40 -c 2 -a 0 -i 2 -k RTR
r -t 1.008591113 -s 10 -d -1 -p ACK -e 38 -c 2 -a 0 -i 0 -k MAC
+ -t 1.008660521 -s 9 -d -1 -p RTS -e 44 -c 2 -a 0 -i 0 -k MAC 
- -t 1.008660521 -s 9 -d -1 -p RTS -e 44 -c 2 -a 0 -i 0 -k MAC
h -t 1.008660521 -s 9 -d -1 -p RTS -e 44 -c 2 -a 0 -i 0 -k MAC
r -t 1.009013113 -s 10 -d -1 -p RTS -e 44 -c 2 -a 0 -i 0 -k MAC
+ -t 1.009023113 -s 10 -d -1 -p CTS -e 38 -c 2 -a 0 -i 0 -k MAC 
- -t 1.009023113 -s 10 -d -1 -p CTS -e 38 -c 2 -a 0 -i 0 -k MAC
h -t 1.009023113 -s 10 -d -1 -p CTS -e 38 -c 2 -a 0 -i 0 -k MAC
+ -t 1.009113071 -s 6 -d -1 -p AODV -e 48 -c 2 -a 0 -i 0 -k RTR 
- -t 1.009113071 -s 6 -d -1 -p AODV -e 48 -c 2 -a 0 -i 0 -k RTR
h -t 1.009113071 -s 6 -d -1 -p AODV -e 48 -c 2 -a 0 -i 0 -k RTR
r -t 1.009327706 -s 9 -d -1 -p CTS -e 38 -c 2 -a 0 -i 0 -k MAC
+ -t 1.009337706 -s 9 -d 10 -p ack -e 98 -c 2 -a 0 -i 2 -k MAC 
- -t 1.009337706 -s 9 -d 10 -p ack -e 98 -c 2 -a 0 -i 2 -k MAC
h -t 1.009337706 -s 9 -d 10 -p ack -e 98 -c 2 -a 0 -i 2 -k MAC
r -t 1.010122299 -s 10 -d 10 -p ack -e 40 -c 2 -a 0 -i 2 -k MAC
+ -t 1.010132299 -s 10 -d -1 -p ACK -e 38 -c 2 -a 0 -i 0 -k MAC 
- -t 1.010132299 -s 10 -d -1 -p ACK -e 38 -c 2 -a 0 -i 0 -k MAC
h -t 1.010132299 -s 10 -d -1 -p ACK -e 38 -c 2 -a 0 -i 0 -k MAC
r -t 1.010147299 -s 10 -d 10 -p ack -e 40 -c 2 -a 0 -i 2 -k AGT
+ -t 1.010147299 -s 10 -d -1 -p tcp -e 1540 -c 2 -a 0 -i 3 -k AGT 
- -t 1.010147299 -s 10 -d -1 -p tcp -e 1540 -c 2 -a 0 -i 3 -k AGT
h -t 1.010147299 -s 10 -d -1 -p tcp -e 1540 -c 2 -a 0 -i 3 -k AGT
+ -t 1.010147299 -s 10 -d -1 -p tcp -e 1540 -c 2 -a 0 -i 4 -k AGT 
- -t 1.010147299 -s 10 -d -1 -p tcp -e 1540 -c 2 -a 0 -i 4 -k AGT
h -t 1.010147299 -s 10 -d -1 -p tcp -e 1540 -c 2 -a 0 -i 4 -k AGT
+ -t 1.010147299 -s 10 -d 9 -p tcp -e 1540 -c 2 -a 0 -i 3 -k RTR 
- -t 1.010147299 -s 10 -d 9 -p tcp -e 1540 -c 2 -a 0 -i 3 -k RTR
h -t 1.010147299 -s 10 -d 9 -p tcp -e 1540 -c 2 -a 0 -i 3 -k RTR
+ -t 1.010147299 -s 10 -d 9 -p tcp -e 1540 -c 2 -a 0 -i 4 -k RTR 
- -t 1.010147299 -s 10 -d 9 -p tcp -e 1540 -c 2 -a 0 -i 4 -k RTR
h -t 1.010147299 -s 10 -d 9 -p tcp -e 1540 -c 2 -a 0 -i 4 -k RTR
r -t 1.010436892 -s 9 -d -1 -p ACK -e 38 -c 2 -a 0 -i 0 -k MAC
+ -t 1.010616810 -s 8 -d -1 -p AODV -e 106 -c 2 -a 0 -i 0 -k MAC 
- -t 1.010616810 -s 8 -d -1 -p AODV -e 106 -c 2 -a 0 -i 0 -k MAC
h -t 1.010616810 -s 8 -d -1 -p AODV -e 106 -c 2 -a 0 -i 0 -k MAC
r -t 1.011465094 -s 6 -d -1 -p AODV -e 48 -c 2 -a 0 -i 0 -k MAC
r -t 1.011465249 -s 5 -d -1 -p AODV -e 48 -c 2 -a 0 -i 0 -k MAC
r -t 1.011465344 -s 7 -d -1 -p AODV -e 48 -c 2 -a 0 -i 0 -k MAC
r -t 1.011465365 -s 1 -d -1 -p AODV -e 48 -c 2 -a 0 -i 0 -k MAC
r -t 1.011465404 -s 10 -d -1 -p AODV -e 48 -c 2 -a 0 -i 0 -k MAC
r -t 1.011490094 -s 6 -d -1 -p AODV -e 48 -c 2 -a 0 -i 0 -k RTR
r -t 1.011490249 -s 5 -d -1 -p AODV -e 48 -c 2 -a 0 -i 0 -k RTR
r -t 1.011490344 -s 7 -d -1 -p AODV -e 48 -c 2 -a 0 -i 0 -k RTR
r -t 1.011490365 -s 1 -d -1 -p AODV -e 48 -c 2 -a 0 -i 0 -k RTR
r -t 1.011490404 -s 10 -d -1 -p AODV -e 48 -c 2 -a 0 -i 0 -k RTR
+ -t 1.011615404 -s 10 -d -1 -p RTS -e 44 -c 2 -a 0 -i 0 -k MAC 
- -t 1.011615404 -s 10 -d -1 -p RTS -e 44 -c 2 -a 0 -i 0 -k MAC
h -t 1.011615404 -s 10 -d -1 -p RTS -e 44 -c 2 -a 0 -i 0 -k MAC
r -t 1.011967997 -s 9 -d -1 -p RTS -e 44 -c 2 -a 0 -i 0 -k MAC
+ -t 1.011977997 -s 9 -d -1 -p CTS -e 38 -c 2 -a 0 -i 0 -k MAC 
- -t 1.011977997 -s 9 -d -1 -p CTS -e 38 -c 2 -a 0 -i 0 -k MAC
h -t 1.011977997 -s 9 -d -1 -p CTS -e 38 -c 2 -a 0 -i 0 -k MAC
r -t 1.012282590 -s 10 -d -1 -p CTS -e 38 -c 2 -a 0 -i 0 -k MAC
+ -t 1.012292590 -s 10 -d 9 -p tcp -e 1598 -c 2 -a 0 -i 3 -k MAC 
- -t 1.012292590 -s 10 -d 9 -p tcp -e 1598 -c 2 -a 0 -i 3 -k MAC
h -t 1.012292590 -s 10 -d 9 -p tcp -e 1598 -c 2 -a 0 -i 3 -k MAC
+ -t 1.013902505 -s 5 -d -1 -p AODV -e 48 -c 2 -a 0 -i 0 -k RTR 
- -t 1.013902505 -s 5 -d -1 -p AODV -e 48 -c 2 -a 0 -i 0 -k RTR
h -t 1.013902505 -s 5 -d -1 -p AODV -e 48 -c 2 -a 0 -i 0 -k RTR
+ -t 1.018263855 -s 1 -d -1 -p AODV -e 48 -c 2 -a 0 -i 0 -k RTR 
- -t 1.018263855 -s 1 -d -1 -p AODV -e 48 -c 2 -a 0 -i 0 -k RTR
h -t 1.018263855 -s 1 -d -1 -p AODV -e 48 -c 2 -a 0 -i 0 -k RTR
+ -t 1.020001409 -s 7 -d -1 -p AODV -e 48 -c 2 -a 0 -i 0 -k RTR 
- -t 1.020001409 -s 7 -d -1 -p AODV -e 48 -c 2 -a 0 -i 0 -k RTR
h -t 1.020001409 -s 7 -d -1 -p AODV -e 48 -c 2 -a 0 -i 0 -k RTR
r -t 1.025077182 -s 9 -d 9 -p tcp -e 1540 -c 2 -a 0 -i 3 -k MAC
+ -t 1.025087182 -s 9 -d -1 -p ACK -e 38 -c 2 -a 0 -i 0 -k MAC 
- -t 1.025087182 -s 9 -d -1 -p ACK -e 38 -c 2 -a 0 -i 0 -k MAC
h -t 1.025087182 -s 9 -d -1 -p ACK -e 38 -c 2 -a 0 -i 0 -k MAC
r -t 1.025102182 -s 9 -d 9 -p tcp -e 1540 -c 2 -a 0 -i 3 -k AGT
+ -t 1.025102182 -s 9 -d -1 -p ack -e 40 -c 2 -a 0 -i 5 -k AGT 
- -t 1.025102182 -s 9 -d -1 -p ack -e 40 -c 2 -a 0 -i 5 -k AGT
h -t 1.025102182 -s 9 -d -1 -p ack -e 40 -c 2 -a 0 -i 5 -k AGT
+ -t 1.025102182 -s 9 -d 10 -p ack -e 40 -c 2 -a 0 -i 5 -k RTR 
- -t 1.025102182 -s 9 -d 10 -p ack -e 40 -c 2 -a 0 -i 5 -k RTR
h -t 1.025102182 -s 9 -d 10 -p ack -e 40 -c 2 -a 0 -i 5 -k RTR
r -t 1.025391776 -s 10 -d -1 -p ACK -e 38 -c 2 -a 0 -i 0 -k MAC
+ -t 1.025641776 -s 10 -d -1 -p RTS -e 44 -c 2 -a 0 -i 0 -k MAC 
- -t 1.025641776 -s 10 -d -1 -p RTS -e 44 -c 2 -a 0 -i 0 -k MAC
h -t 1.025641776 -s 10 -d -1 -p RTS -e 44 -c 2 -a 0 -i 0 -k MAC
r -t 1.025994369 -s 9 -d -1 -p RTS -e 44 -c 2 -a 0 -i 0 -k MAC
+ -t 1.026004369 -s 9 -d -1 -p CTS -e 38 -c 2 -a 0 -i 0 -k MAC 
- -t 1.026004369 -s 9 -d -1 -p CTS -e 38 -c 2 -a 0 -i 0 -k MAC
h -t 1.026004369 -s 9 -d -1 -p CTS -e 38 -c 2 -a 0 -i 0 -k MAC
r -t 1.026308962 -s 10 -d -1 -p CTS -e 38 -c 2 -a 0 -i 0 -k MAC
+ -t 1.026318962 -s 10 -d 9 -p tcp -e 1598 -c 2 -a 0 -i 4 -k MAC 
- -t 1.026318962 -s 10 -d 9 -p tcp -e 1598 -c 2 -a 0 -i 4 -k MAC
h -t 1.026318962 -s 10 -d 9 -p tcp -e 1598 -c 2 -a 0 -i 4 -k MAC
r -t 1.039103555 -s 9 -d 9 -p tcp -e 1540 -c 2 -a 0 -i 4 -k MAC
+ -t 1.039113555 -s 9 -d -1 -p ACK -e 38 -c 2 -a 0 -i 0 -k MAC 
- -t 1.039113555 -s 9 -d -1 -p ACK -e 38 -c 2 -a 0 -i 0 -k MAC
h -t 1.039113555 -s 9 -d -1 -p ACK -e 38 -c 2 -a 0 -i 0 -k MAC
r -t 1.039128555 -s 9 -d 9 -p tcp -e 1540 -c 2 -a 0 -i 4 -k AGT
+ -t 1.039128555 -s 9 -d -1 -p ack -e 40 -c 2 -a 0 -i 6 -k AGT 
- -t 1.039128555 -s 9 -d -1 -p ack -e 40 -c 2 -a 0 -i 6 -k AGT
h -t 1.039128555 -s 9 -d -1 -p ack -e 40 -c 2 -a 0 -i 6 -k AGT
+ -t 1.039128555 -s 9 -d 10 -p ack -e 40 -c 2 -a 0 -i 6 -k RTR 
- -t 1.039128555 -s 9 -d 10 -p ack -e 40 -c 2 -a 0 -i 6 -k RTR
h -t 1.039128555 -s 9 -d 10 -p ack -e 40 -c 2 -a 0 -i 6 -k RTR
r -t 1.039418149 -s 10 -d -1 -p ACK -e 38 -c 2 -a 0 -i 0 -k MAC
+ -t 1.039727555 -s 9 -d -1 -p RTS -e 44 -c 2 -a 0 -i 0 -k MAC 
- -t 1.039727555 -s 9 -d -1 -p RTS -e 44 -c 2 -a 0 -i 0 -k MAC
h -t 1.039727555 -s 9 -d -1 -p RTS -e 44 -c 2 -a 0 -i 0 -k MAC
r -t 1.040080149 -s 10 -d -1 -p RTS -e 44 -c 2 -a 0 -i 0 -k MAC
+ -t 1.040090149 -s 10 -d -1 -p CTS -e 38 -c 2 -a 0 -i 0 -k MAC 
- -t 1.040090149 -s 10 -d -1 -p CTS -e 38 -c 2 -a 0 -i 0 -k MAC
h -t 1.040090149 -s 10 -d -1 -p CTS -e 38 -c 2 -a 0 -i 0 -k MAC
r -t 1.040394742 -s 9 -d -1 -p CTS -e 38 -c 2 -a 0 -i 0 -k MAC
+ -t 1.040404742 -s 9 -d 10 -p ack -e 98 -c 2 -a 0 -i 5 -k MAC 
- -t 1.040404742 -s 9 -d 10 -p ack -e 98 -c 2 -a 0 -i 5 -k MAC
h -t 1.040404742 -s 9 -d 10 -p ack -e 98 -c 2 -a 0 -i 5 -k MAC
r -t 1.041189336 -s 10 -d 10 -p ack -e 40 -c 2 -a 0 -i 5 -k MAC
+ -t 1.041199336 -s 10 -d -1 -p ACK -e 38 -c 2 -a 0 -i 0 -k MAC 
- -t 1.041199336 -s 10 -d -1 -p ACK -e 38 -c 2 -a 0 -i 0 -k MAC
h -t 1.041199336 -s 10 -d -1 -p ACK -e 38 -c 2 -a 0 -i 0 -k MAC
r -t 1.041214336 -s 10 -d 10 -p ack -e 40 -c 2 -a 0 -i 5 -k AGT
+ -t 1.041214336 -s 10 -d -1 -p tcp -e 1540 -c 2 -a 0 -i 7 -k AGT 
- -t 1.041214336 -s 10 -d -1 -p tcp -e 1540 -c 2 -a 0 -i 7 -k AGT
h -t 1.041214336 -s 10 -d -1 -p tcp -e 1540 -c 2 -a 0 -i 7 -k AGT
+ -t 1.041214336 -s 10 -d -1 -p tcp -e 1540 -c 2 -a 0 -i 8 -k AGT 
- -t 1.041214336 -s 10 -d -1 -p tcp -e 1540 -c 2 -a 0 -i 8 -k AGT
h -t 1.041214336 -s 10 -d -1 -p tcp -e 1540 -c 2 -a 0 -i 8 -k AGT
+ -t 1.041214336 -s 10 -d 9 -p tcp -e 1540 -c 2 -a 0 -i 7 -k RTR 
- -t 1.041214336 -s 10 -d 9 -p tcp -e 1540 -c 2 -a 0 -i 7 -k RTR
h -t 1.041214336 -s 10 -d 9 -p tcp -e 1540 -c 2 -a 0 -i 7 -k RTR
+ -t 1.041214336 -s 10 -d 9 -p tcp -e 1540 -c 2 -a 0 -i 8 -k RTR 
- -t 1.041214336 -s 10 -d 9 -p tcp -e 1540 -c 2 -a 0 -i 8 -k RTR
h -t 1.041214336 -s 10 -d 9 -p tcp -e 1540 -c 2 -a 0 -i 8 -k RTR
r -t 1.041503929 -s 9 -d -1 -p ACK -e 38 -c 2 -a 0 -i 0 -k MAC
+ -t 1.041773336 -s 10 -d -1 -p RTS -e 44 -c 2 -a 0 -i 0 -k MAC 
- -t 1.041773336 -s 10 -d -1 -p RTS -e 44 -c 2 -a 0 -i 0 -k MAC
h -t 1.041773336 -s 10 -d -1 -p RTS -e 44 -c 2 -a 0 -i 0 -k MAC
r -t 1.042125929 -s 9 -d -1 -p RTS -e 44 -c 2 -a 0 -i 0 -k MAC
+ -t 1.042135929 -s 9 -d -1 -p CTS -e 38 -c 2 -a 0 -i 0 -k MAC 
- -t 1.042135929 -s 9 -d -1 -p CTS -e 38 -c 2 -a 0 -i 0 -k MAC
h -t 1.042135929 -s 9 -d -1 -p CTS -e 38 -c 2 -a 0 -i 0 -k MAC
r -t 1.042440523 -s 10 -d -1 -p CTS -e 38 -c 2 -a 0 -i 0 -k MAC
+ -t 1.042450523 -s 10 -d 9 -p tcp -e 1598 -c 2 -a 0 -i 7 -k MAC 
- -t 1.042450523 -s 10 -d 9 -p tcp -e 1598 -c 2 -a 0 -i 7 -k MAC
h -t 1.042450523 -s 10 -d 9 -p tcp -e 1598 -c 2 -a 0 -i 7 -k MAC
r -t 1.055235117 -s 9 -d 9 -p tcp -e 1540 -c 2 -a 0 -i 7 -k MAC
+ -t 1.055245117 -s 9 -d -1 -p ACK -e 38 -c 2 -a 0 -i 0 -k MAC 
- -t 1.055245117 -s 9 -d -1 -p ACK -e 38 -c 2 -a 0 -i 0 -k MAC
h -t 1.055245117 -s 9 -d -1 -p ACK -e 38 -c 2 -a 0 -i 0 -k MAC
r -t 1.055260117 -s 9 -d 9 -p tcp -e 1540 -c 2 -a 0 -i 7 -k AGT
+ -t 1.055260117 -s 9 -d -1 -p ack -e 40 -c 2 -a 0 -i 9 -k AGT 
- -t 1.055260117 -s 9 -d -1 -p ack -e 40 -c 2 -a 0 -i 9 -k AGT
h -t 1.055260117 -s 9 -d -1 -p ack -e 40 -c 2 -a 0 -i 9 -k AGT
+ -t 1.055260117 -s 9 -d 10 -p ack -e 40 -c 2 -a 0 -i 9 -k RTR 
- -t 1.055260117 -s 9 -d 10 -p ack -e 40 -c 2 -a 0 -i 9 -k RTR
h -t 1.055260117 -s 9 -d 10 -p ack -e 40 -c 2 -a 0 -i 9 -k RTR
r -t 1.055549710 -s 10 -d -1 -p ACK -e 38 -c 2 -a 0 -i 0 -k MAC
+ -t 1.055699117 -s 9 -d -1 -p RTS -e 44 -c 2 -a 0 -i 0 -k MAC 
- -t 1.055699117 -s 9 -d -1 -p RTS -e 44 -c 2 -a 0 -i 0 -k MAC
h -t 1.055699117 -s 9 -d -1 -p RTS -e 44 -c 2 -a 0 -i 0 -k MAC
r -t 1.056051710 -s 10 -d -1 -p RTS -e 44 -c 2 -a 0 -i 0 -k MAC
+ -t 1.056061710 -s 10 -d -1 -p CTS -e 38 -c 2 -a 0 -i 0 -k MAC 
- -t 1.056061710 -s 10 -d -1 -p CTS -e 38 -c 2 -a 0 -i 0 -k MAC
h -t 1.056061710 -s 10 -d -1 -p CTS -e 38 -c 2 -a 0 -i 0 -k MAC
r -t 1.056366304 -s 9 -d -1 -p CTS -e 38 -c 2 -a 0 -i 0 -k MAC
+ -t 1.056376304 -s 9 -d 10 -p ack -e 98 -c 2 -a 0 -i 6 -k MAC 
- -t 1.056376304 -s 9 -d 10 -p ack -e 98 -c 2 -a 0 -i 6 -k MAC
h -t 1.056376304 -s 9 -d 10 -p ack -e 98 -c 2 -a 0 -i 6 -k MAC
r -t 1.057160898 -s 10 -d 10 -p ack -e 40 -c 2 -a 0 -i 6 -k MAC
+ -t 1.057170898 -s 10 -d -1 -p ACK -e 38 -c 2 -a 0 -i 0 -k MAC 
- -t 1.057170898 -s 10 -d -1 -p ACK -e 38 -c 2 -a 0 -i 0 -k MAC
h -t 1.057170898 -s 10 -d -1 -p ACK -e 38 -c 2 -a 0 -i 0 -k MAC
r -t 1.057185898 -s 10 -d 10 -p ack -e 40 -c 2 -a 0 -i 6 -k AGT
+ -t 1.057185898 -s 10 -d -1 -p tcp -e 1540 -c 2 -a 0 -i 10 -k AGT 
- -t 1.057185898 -s 10 -d -1 -p tcp -e 1540 -c 2 -a 0 -i 10 -k AGT
h -t 1.057185898 -s 10 -d -1 -p tcp -e 1540 -c 2 -a 0 -i 10 -k AGT
+ -t 1.057185898 -s 10 -d -1 -p tcp -e 1540 -c 2 -a 0 -i 11 -k AGT 
- -t 1.057185898 -s 10 -d -1 -p tcp -e 1540 -c 2 -a 0 -i 11 -k AGT
h -t 1.057185898 -s 10 -d -1 -p tcp -e 1540 -c 2 -a 0 -i 11 -k AGT
+ -t 1.057185898 -s 10 -d 9 -p tcp -e 1540 -c 2 -a 0 -i 10 -k RTR 
- -t 1.057185898 -s 10 -d 9 -p tcp -e 1540 -c 2 -a 0 -i 10 -k RTR
h -t 1.057185898 -s 10 -d 9 -p tcp -e 1540 -c 2 -a 0 -i 10 -k RTR
+ -t 1.057185898 -s 10 -d 9 -p tcp -e 1540 -c 2 -a 0 -i 11 -k RTR 
- -t 1.057185898 -s 10 -d 9 -p tcp -e 1540 -c 2 -a 0 -i 11 -k RTR
h -t 1.057185898 -s 10 -d 9 -p tcp -e 1540 -c 2 -a 0 -i 11 -k RTR
r -t 1.057475492 -s 9 -d -1 -p ACK -e 38 -c 2 -a 0 -i 0 -k MAC
+ -t 1.057545492 -s 9 -d -1 -p RTS -e 44 -c 2 -a 0 -i 0 -k MAC 
- -t 1.057545492 -s 9 -d -1 -p RTS -e 44 -c 2 -a 0 -i 0 -k MAC
h -t 1.057545492 -s 9 -d -1 -p RTS -e 44 -c 2 -a 0 -i 0 -k MAC
r -t 1.057898086 -s 10 -d -1 -p RTS -e 44 -c 2 -a 0 -i 0 -k MAC
+ -t 1.057908086 -s 10 -d -1 -p CTS -e 38 -c 2 -a 0 -i 0 -k MAC 
- -t 1.057908086 -s 10 -d -1 -p CTS -e 38 -c 2 -a 0 -i 0 -k MAC
h -t 1.057908086 -s 10 -d -1 -p CTS -e 38 -c 2 -a 0 -i 0 -k MAC
r -t 1.058212680 -s 9 -d -1 -p CTS -e 38 -c 2 -a 0 -i 0 -k MAC
+ -t 1.058222680 -s 9 -d 10 -p ack -e 98 -c 2 -a 0 -i 9 -k MAC 
- -t 1.058222680 -s 9 -d 10 -p ack -e 98 -c 2 -a 0 -i 9 -k MAC
h -t 1.058222680 -s 9 -d 10 -p ack -e 98 -c 2 -a 0 -i 9 -k MAC
r -t 1.059007273 -s 10 -d 10 -p ack -e 40 -c 2 -a 0 -i 9 -k MAC
+ -t 1.059017273 -s 10 -d -1 -p ACK -e 38 -c 2 -a 0 -i 0 -k MAC 
- -t 1.059017273 -s 10 -d -1 -p ACK -e 38 -c 2 -a 0 -i 0 -k MAC
h -t 1.059017273 -s 10 -d -1 -p ACK -e 38 -c 2 -a 0 -i 0 -k MAC
r -t 1.059032273 -s 10 -d 10 -p ack -e 40 -c 2 -a 0 -i 9 -k AGT
+ -t 1.059032273 -s 10 -d -1 -p tcp -e 1540 -c 2 -a 0 -i 12 -k AGT 
- -t 1.059032273 -s 10 -d -1 -p tcp -e 1540 -c 2 -a 0 -i 12 -k AGT
h -t 1.059032273 -s 10 -d -1 -p tcp -e 1540 -c 2 -a 0 -i 12 -k AGT
+ -t 1.059032273 -s 10 -d -1 -p tcp -e 1540 -c 2 -a 0 -i 13 -k AGT 
- -t 1.059032273 -s 10 -d -1 -p tcp -e 1540 -c 2 -a 0 -i 13 -k AGT
h -t 1.059032273 -s 10 -d -1 -p tcp -e 1540 -c 2 -a 0 -i 13 -k AGT
+ -t 1.059032273 -s 10 -d 9 -p tcp -e 1540 -c 2 -a 0 -i 12 -k RTR 
- -t 1.059032273 -s 10 -d 9 -p tcp -e 1540 -c 2 -a 0 -i 12 -k RTR
h -t 1.059032273 -s 10 -d 9 -p tcp -e 1540 -c 2 -a 0 -i 12 -k RTR
+ -t 1.059032273 -s 10 -d 9 -p tcp -e 1540 -c 2 -a 0 -i 13 -k RTR 
- -t 1.059032273 -s 10 -d 9 -p tcp -e 1540 -c 2 -a 0 -i 13 -k RTR
h -t 1.059032273 -s 10 -d 9 -p tcp -e 1540 -c 2 -a 0 -i 13 -k RTR
r -t 1.059321867 -s 9 -d -1 -p ACK -e 38 -c 2 -a 0 -i 0 -k MAC
+ -t 1.059521528 -s 6 -d -1 -p AODV -e 106 -c 2 -a 0 -i 0 -k MAC 
- -t 1.059521528 -s 6 -d -1 -p AODV -e 106 -c 2 -a 0 -i 0 -k MAC
h -t 1.059521528 -s 6 -d -1 -p AODV -e 106 -c 2 -a 0 -i 0 -k MAC
r -t 1.060369807 -s 8 -d -1 -p AODV -e 48 -c 2 -a 0 -i 0 -k MAC
r -t 1.060369837 -s 10 -d -1 -p AODV -e 48 -c 2 -a 0 -i 0 -k MAC
r -t 1.060370143 -s 5 -d -1 -p AODV -e 48 -c 2 -a 0 -i 0 -k MAC
r -t 1.060370244 -s 7 -d -1 -p AODV -e 48 -c 2 -a 0 -i 0 -k MAC
r -t 1.060370361 -s 1 -d -1 -p AODV -e 48 -c 2 -a 0 -i 0 -k MAC
r -t 1.060394807 -s 8 -d -1 -p AODV -e 48 -c 2 -a 0 -i 0 -k RTR
r -t 1.060394837 -s 10 -d -1 -p AODV -e 48 -c 2 -a 0 -i 0 -k RTR
r -t 1.060395143 -s 5 -d -1 -p AODV -e 48 -c 2 -a 0 -i 0 -k RTR
r -t 1.060395244 -s 7 -d -1 -p AODV -e 48 -c 2 -a 0 -i 0 -k RTR
r -t 1.060395361 -s 1 -d -1 -p AODV -e 48 -c 2 -a 0 -i 0 -k RTR
+ -t 1.060439837 -s 10 -d -1 -p RTS -e 44 -c 2 -a 0 -i 0 -k MAC 
- -t 1.060439837 -s 10 -d -1 -p RTS -e 44 -c 2 -a 0 -i 0 -k MAC
h -t 1.060439837 -s 10 -d -1 -p RTS -e 44 -c 2 -a 0 -i 0 -k MAC
r -t 1.060792431 -s 9 -d -1 -p RTS -e 44 -c 2 -a 0 -i 0 -k MAC
+ -t 1.060802431 -s 9 -d -1 -p CTS -e 38 -c 2 -a 0 -i 0 -k MAC 
- -t 1.060802431 -s 9 -d -1 -p CTS -e 38 -c 2 -a 0 -i 0 -k MAC
h -t 1.060802431 -s 9 -d -1 -p CTS -e 38 -c 2 -a 0 -i 0 -k MAC
r -t 1.061107025 -s 10 -d -1 -p CTS -e 38 -c 2 -a 0 -i 0 -k MAC
+ -t 1.061117025 -s 10 -d 9 -p tcp -e 1598 -c 2 -a 0 -i 8 -k MAC 
- -t 1.061117025 -s 10 -d 9 -p tcp -e 1598 -c 2 -a 0 -i 8 -k MAC
h -t 1.061117025 -s 10 -d 9 -p tcp -e 1598 -c 2 -a 0 -i 8 -k MAC
r -t 1.073901619 -s 9 -d 9 -p tcp -e 1540 -c 2 -a 0 -i 8 -k MAC
+ -t 1.073911619 -s 9 -d -1 -p ACK -e 38 -c 2 -a 0 -i 0 -k MAC 
- -t 1.073911619 -s 9 -d -1 -p ACK -e 38 -c 2 -a 0 -i 0 -k MAC
h -t 1.073911619 -s 9 -d -1 -p ACK -e 38 -c 2 -a 0 -i 0 -k MAC
r -t 1.073926619 -s 9 -d 9 -p tcp -e 1540 -c 2 -a 0 -i 8 -k AGT
+ -t 1.073926619 -s 9 -d -1 -p ack -e 40 -c 2 -a 0 -i 14 -k AGT 
- -t 1.073926619 -s 9 -d -1 -p ack -e 40 -c 2 -a 0 -i 14 -k AGT
h -t 1.073926619 -s 9 -d -1 -p ack -e 40 -c 2 -a 0 -i 14 -k AGT
+ -t 1.073926619 -s 9 -d 10 -p ack -e 40 -c 2 -a 0 -i 14 -k RTR 
- -t 1.073926619 -s 9 -d 10 -p ack -e 40 -c 2 -a 0 -i 14 -k RTR
h -t 1.073926619 -s 9 -d 10 -p ack -e 40 -c 2 -a 0 -i 14 -k RTR
r -t 1.074216213 -s 10 -d -1 -p ACK -e 38 -c 2 -a 0 -i 0 -k MAC
+ -t 1.074326213 -s 10 -d -1 -p RTS -e 44 -c 2 -a 0 -i 0 -k MAC 
- -t 1.074326213 -s 10 -d -1 -p RTS -e 44 -c 2 -a 0 -i 0 -k MAC
h -t 1.074326213 -s 10 -d -1 -p RTS -e 44 -c 2 -a 0 -i 0 -k MAC
r -t 1.074678807 -s 9 -d -1 -p RTS -e 44 -c 2 -a 0 -i 0 -k MAC
+ -t 1.074688807 -s 9 -d -1 -p CTS -e 38 -c 2 -a 0 -i 0 -k MAC 
- -t 1.074688807 -s 9 -d -1 -p CTS -e 38 -c 2 -a 0 -i 0 -k MAC
h -t 1.074688807 -s 9 -d -1 -p CTS -e 38 -c 2 -a 0 -i 0 -k MAC
r -t 1.074993401 -s 10 -d -1 -p CTS -e 38 -c 2 -a 0 -i 0 -k MAC
+ -t 1.075003401 -s 10 -d 9 -p tcp -e 1598 -c 2 -a 0 -i 10 -k MAC 
- -t 1.075003401 -s 10 -d 9 -p tcp -e 1598 -c 2 -a 0 -i 10 -k MAC
h -t 1.075003401 -s 10 -d 9 -p tcp -e 1598 -c 2 -a 0 -i 10 -k MAC
r -t 1.087787995 -s 9 -d 9 -p tcp -e 1540 -c 2 -a 0 -i 10 -k MAC
+ -t 1.087797995 -s 9 -d -1 -p ACK -e 38 -c 2 -a 0 -i 0 -k MAC 
- -t 1.087797995 -s 9 -d -1 -p ACK -e 38 -c 2 -a 0 -i 0 -k MAC
h -t 1.087797995 -s 9 -d -1 -p ACK -e 38 -c 2 -a 0 -i 0 -k MAC
r -t 1.087812995 -s 9 -d 9 -p tcp -e 1540 -c 2 -a 0 -i 10 -k AGT
+ -t 1.087812995 -s 9 -d -1 -p ack -e 40 -c 2 -a 0 -i 15 -k AGT 
- -t 1.087812995 -s 9 -d -1 -p ack -e 40 -c 2 -a 0 -i 15 -k AGT
h -t 1.087812995 -s 9 -d -1 -p ack -e 40 -c 2 -a 0 -i 15 -k AGT
+ -t 1.087812995 -s 9 -d 10 -p ack -e 40 -c 2 -a 0 -i 15 -k RTR 
- -t 1.087812995 -s 9 -d 10 -p ack -e 40 -c 2 -a 0 -i 15 -k RTR
h -t 1.087812995 -s 9 -d 10 -p ack -e 40 -c 2 -a 0 -i 15 -k RTR
r -t 1.088102590 -s 10 -d -1 -p ACK -e 38 -c 2 -a 0 -i 0 -k MAC
+ -t 1.088291995 -s 9 -d -1 -p RTS -e 44 -c 2 -a 0 -i 0 -k MAC 
- -t 1.088291995 -s 9 -d -1 -p RTS -e 44 -c 2 -a 0 -i 0 -k MAC
h -t 1.088291995 -s 9 -d -1 -p RTS -e 44 -c 2 -a 0 -i 0 -k MAC
r -t 1.088644590 -s 10 -d -1 -p RTS -e 44 -c 2 -a 0 -i 0 -k MAC
+ -t 1.088654590 -s 10 -d -1 -p CTS -e 38 -c 2 -a 0 -i 0 -k MAC 
- -t 1.088654590 -s 10 -d -1 -p CTS -e 38 -c 2 -a 0 -i 0 -k MAC
h -t 1.088654590 -s 10 -d -1 -p CTS -e 38 -c 2 -a 0 -i 0 -k MAC
r -t 1.088959184 -s 9 -d -1 -p CTS -e 38 -c 2 -a 0 -i 0 -k MAC
+ -t 1.088969184 -s 9 -d 10 -p ack -e 98 -c 2 -a 0 -i 14 -k MAC 
- -t 1.088969184 -s 9 -d 10 -p ack -e 98 -c 2 -a 0 -i 14 -k MAC
h -t 1.088969184 -s 9 -d 10 -p ack -e 98 -c 2 -a 0 -i 14 -k MAC
r -t 1.089753779 -s 10 -d 10 -p ack -e 40 -c 2 -a 0 -i 14 -k MAC
+ -t 1.089763779 -s 10 -d -1 -p ACK -e 38 -c 2 -a 0 -i 0 -k MAC 
- -t 1.089763779 -s 10 -d -1 -p ACK -e 38 -c 2 -a 0 -i 0 -k MAC
h -t 1.089763779 -s 10 -d -1 -p ACK -e 38 -c 2 -a 0 -i 0 -k MAC
r -t 1.089778779 -s 10 -d 10 -p ack -e 40 -c 2 -a 0 -i 14 -k AGT
+ -t 1.089778779 -s 10 -d -1 -p tcp -e 1540 -c 2 -a 0 -i 16 -k AGT 
- -t 1.089778779 -s 10 -d -1 -p tcp -e 1540 -c 2 -a 0 -i 16 -k AGT
h -t 1.089778779 -s 10 -d -1 -p tcp -e 1540 -c 2 -a 0 -i 16 -k AGT
+ -t 1.089778779 -s 10 -d -1 -p tcp -e 1540 -c 2 -a 0 -i 17 -k AGT 
- -t 1.089778779 -s 10 -d -1 -p tcp -e 1540 -c 2 -a 0 -i 17 -k AGT
h -t 1.089778779 -s 10 -d -1 -p tcp -e 1540 -c 2 -a 0 -i 17 -k AGT
+ -t 1.089778779 -s 10 -d 9 -p tcp -e 1540 -c 2 -a 0 -i 16 -k RTR 
- -t 1.089778779 -s 10 -d 9 -p tcp -e 1540 -c 2 -a 0 -i 16 -k RTR
h -t 1.089778779 -s 10 -d 9 -p tcp -e 1540 -c 2 -a 0 -i 16 -k RTR
+ -t 1.089778779 -s 10 -d 9 -p tcp -e 1540 -c 2 -a 0 -i 17 -k RTR 
- -t 1.089778779 -s 10 -d 9 -p tcp -e 1540 -c 2 -a 0 -i 17 -k RTR
h -t 1.089778779 -s 10 -d 9 -p tcp -e 1540 -c 2 -a 0 -i 17 -k RTR
r -t 1.090068373 -s 9 -d -1 -p ACK -e 38 -c 2 -a 0 -i 0 -k MAC
+ -t 1.090418373 -s 9 -d -1 -p RTS -e 44 -c 2 -a 0 -i 0 -k MAC 
- -t 1.090418373 -s 9 -d -1 -p RTS -e 44 -c 2 -a 0 -i 0 -k MAC
h -t 1.090418373 -s 9 -d -1 -p RTS -e 44 -c 2 -a 0 -i 0 -k MAC
r -t 1.090770968 -s 10 -d -1 -p RTS -e 44 -c 2 -a 0 -i 0 -k MAC
+ -t 1.090780968 -s 10 -d -1 -p CTS -e 38 -c 2 -a 0 -i 0 -k MAC 
- -t 1.090780968 -s 10 -d -1 -p CTS -e 38 -c 2 -a 0 -i 0 -k MAC
h -t 1.090780968 -s 10 -d -1 -p CTS -e 38 -c 2 -a 0 -i 0 -k MAC
r -t 1.091085562 -s 9 -d -1 -p CTS -e 38 -c 2 -a 0 -i 0 -k MAC
+ -t 1.091095562 -s 9 -d 10 -p ack -e 98 -c 2 -a 0 -i 15 -k MAC 
- -t 1.091095562 -s 9 -d 10 -p ack -e 98 -c 2 -a 0 -i 15 -k MAC
h -t 1.091095562 -s 9 -d 10 -p ack -e 98 -c 2 -a 0 -i 15 -k MAC
r -t 1.091880157 -s 10 -d 10 -p ack -e 40 -c 2 -a 0 -i 15 -k MAC
+ -t 1.091890157 -s 10 -d -1 -p ACK -e 38 -c 2 -a 0 -i 0 -k MAC 
- -t 1.091890157 -s 10 -d -1 -p ACK -e 38 -c 2 -a 0 -i 0 -k MAC
h -t 1.091890157 -s 10 -d -1 -p ACK -e 38 -c 2 -a 0 -i 0 -k MAC
r -t 1.091905157 -s 10 -d 10 -p ack -e 40 -c 2 -a 0 -i 15 -k AGT
+ -t 1.091905157 -s 10 -d -1 -p tcp -e 1540 -c 2 -a 0 -i 18 -k AGT 
- -t 1.091905157 -s 10 -d -1 -p tcp -e 1540 -c 2 -a 0 -i 18 -k AGT
h -t 1.091905157 -s 10 -d -1 -p tcp -e 1540 -c 2 -a 0 -i 18 -k AGT
+ -t 1.091905157 -s 10 -d -1 -p tcp -e 1540 -c 2 -a 0 -i 19 -k AGT 
- -t 1.091905157 -s 10 -d -1 -p tcp -e 1540 -c 2 -a 0 -i 19 -k AGT
h -t 1.091905157 -s 10 -d -1 -p tcp -e 1540 -c 2 -a 0 -i 19 -k AGT
+ -t 1.091905157 -s 10 -d 9 -p tcp -e 1540 -c 2 -a 0 -i 18 -k RTR 
- -t 1.091905157 -s 10 -d 9 -p tcp -e 1540 -c 2 -a 0 -i 18 -k RTR
h -t 1.091905157 -s 10 -d 9 -p tcp -e 1540 -c 2 -a 0 -i 18 -k RTR
+ -t 1.091905157 -s 10 -d 9 -p tcp -e 1540 -c 2 -a 0 -i 19 -k RTR 
- -t 1.091905157 -s 10 -d 9 -p tcp -e 1540 -c 2 -a 0 -i 19 -k RTR
h -t 1.091905157 -s 10 -d 9 -p tcp -e 1540 -c 2 -a 0 -i 19 -k RTR
r -t 1.092194752 -s 9 -d -1 -p ACK -e 38 -c 2 -a 0 -i 0 -k MAC
+ -t 1.092404157 -s 10 -d -1 -p RTS -e 44 -c 2 -a 0 -i 0 -k MAC 
- -t 1.092404157 -s 10 -d -1 -p RTS -e 44 -c 2 -a 0 -i 0 -k MAC
h -t 1.092404157 -s 10 -d -1 -p RTS -e 44 -c 2 -a 0 -i 0 -k MAC
r -t 1.092756752 -s 9 -d -1 -p RTS -e 44 -c 2 -a 0 -i 0 -k MAC
+ -t 1.092766752 -s 9 -d -1 -p CTS -e 38 -c 2 -a 0 -i 0 -k MAC 
- -t 1.092766752 -s 9 -d -1 -p CTS -e 38 -c 2 -a 0 -i 0 -k MAC
h -t 1.092766752 -s 9 -d -1 -p CTS -e 38 -c 2 -a 0 -i 0 -k MAC
r -t 1.093071346 -s 10 -d -1 -p CTS -e 38 -c 2 -a 0 -i 0 -k MAC
+ -t 1.093081346 -s 10 -d 9 -p tcp -e 1598 -c 2 -a 0 -i 11 -k MAC 
- -t 1.093081346 -s 10 -d 9 -p tcp -e 1598 -c 2 -a 0 -i 11 -k MAC
h -t 1.093081346 -s 10 -d 9 -p tcp -e 1598 -c 2 -a 0 -i 11 -k MAC
r -t 1.105865941 -s 9 -d 9 -p tcp -e 1540 -c 2 -a 0 -i 11 -k MAC
+ -t 1.105875941 -s 9 -d -1 -p ACK -e 38 -c 2 -a 0 -i 0 -k MAC 
- -t 1.105875941 -s 9 -d -1 -p ACK -e 38 -c 2 -a 0 -i 0 -k MAC
h -t 1.105875941 -s 9 -d -1 -p ACK -e 38 -c 2 -a 0 -i 0 -k MAC