n -t * -s 0  -x 995 -y 556 -Z 0 -z 30  -v circle -c green
n -t * -s 1  -x 482 -y 637 -Z 0 -z 30  -v circle -c green
n -t * -s 2  -x 549 -y 950 -Z 0 -z 30  -v circle -c green
n -t * -s 3  -x 708 -y 473 -Z 0 -z 30  -v circle -c green
n -t * -s 4  -x 233 -y 949 -Z 0 -z 30  -v circle -c green
n -t * -s 5  -x 354 -y 555 -Z 0 -z 30  -v circle -c green
n -t * -s 6  -x 432 -y 362 -Z 0 -z 30  -v circle -c green
n -t * -s 7  -x 587 -y 512 -Z 0 -z 30  -v circle -c green
n -t * -s 8  -x 456 -y 471 -Z 0 -z 30  -v circle -c green
n -t * -s 9  -x 248 -y 174 -Z 0 -z 30  -v circle -c green
n -t * -s 10  -x 388 -y 272 -Z 0 -z 30  -v circle -c green
n -t * -s 11  -x 475 -y 985 -Z 0 -z 30  -v circle -c green
V -t * -v 1.0a5 -a 0
W -t * -x 1000 -y 1000
A -t * -n 1 -p 0 -o 0xffffffff -c 31 -a 1
A -t * -h 1 -m 2147483647 -s 0
n -t 0.000000 -s 1 -x 482.000000 -y 637.000000 -U 0.741025 -V -24.989015 -T 24.290673
n -t 0.000000 -s 4 -x 233.000000 -y 949.000000 -U 0.737932 -V -4.945246 -T 90.794273
n -t 0.000000 -s 5 -x 354.000000 -y 555.000000 -U -17.365367 -V -24.463116 -T 14.511643
n -t 0.000000 -s 8 -x 456.000000 -y 471.000000 -U -14.742378 -V -20.190648 -T 21.841795
n -t 0.000000 -s 11 -x 475.000000 -y 985.000000 -U 0.130845 -V -4.998288 -T 191.065434
n -t 0.500000 -s 0 -x 995.000000 -y 556.000000 -U -22.964628 -V -9.880580 -T 25.909411
n -t 0.500000 -s 3 -x 708.000000 -y 473.000000 -U -24.761767 -V -7.928109 -T 9.207744
n -t 0.500000 -s 6 -x 432.000000 -y 362.000000 -U -13.816577 -V 9.904655 -T 24.029106
n -t 0.500000 -s 7 -x 587.000000 -y 512.000000 -U 11.759304 -V -22.061704 -T 9.609412
n -t 0.500000 -s 10 -x 388.000000 -y 272.000000 -U 23.745433 -V 10.590298 -T 12.086535
v -t 0.5 -e sim_annotation 0.5 1 Starting CBR0 node0 to node1
v -t 0.5 -e sim_annotation 0.5 2 Starting CBR1 node10 to node9
n -t 0.700000 -s 2 -x 549.000000 -y 950.000000 -U -1.151030 -V -19.966851 -T 42.570559
n -t 0.700000 -s 9 -x 248.000000 -y 174.000000 -U 13.833688 -V 14.443998 -T 29.493220
+ -t 1.000000000 -s 0 -d -1 -p tcp -e 40 -c 2 -a 0 -i 0 -k AGT 
- -t 1.000000000 -s 0 -d -1 -p tcp -e 40 -c 2 -a 0 -i 0 -k AGT
h -t 1.000000000 -s 0 -d -1 -p tcp -e 40 -c 2 -a 0 -i 0 -k AGT
+ -t 1.000000000 -s 10 -d -1 -p tcp -e 40 -c 2 -a 0 -i 1 -k AGT 
- -t 1.000000000 -s 10 -d -1 -p tcp -e 40 -c 2 -a 0 -i 1 -k AGT
h -t 1.000000000 -s 10 -d -1 -p tcp -e 40 -c 2 -a 0 -i 1 -k AGT
+ -t 1.000000000 -s 0 -d -1 -p AOMDV -e 52 -c 2 -a 0 -i 0 -k RTR 
- -t 1.000000000 -s 0 -d -1 -p AOMDV -e 52 -c 2 -a 0 -i 0 -k RTR
h -t 1.000000000 -s 0 -d -1 -p AOMDV -e 52 -c 2 -a 0 -i 0 -k RTR
+ -t 1.000000000 -s 10 -d -1 -p AOMDV -e 52 -c 2 -a 0 -i 0 -k RTR 
- -t 1.000000000 -s 10 -d -1 -p AOMDV -e 52 -c 2 -a 0 -i 0 -k RTR
h -t 1.000000000 -s 10 -d -1 -p AOMDV -e 52 -c 2 -a 0 -i 0 -k RTR
+ -t 1.000315000 -s 0 -d -1 -p AOMDV -e 110 -c 2 -a 0 -i 0 -k MAC 
- -t 1.000315000 -s 0 -d -1 -p AOMDV -e 110 -c 2 -a 0 -i 0 -k MAC
h -t 1.000315000 -s 0 -d -1 -p AOMDV -e 110 -c 2 -a 0 -i 0 -k MAC
+ -t 1.000515000 -s 10 -d -1 -p AOMDV -e 110 -c 2 -a 0 -i 0 -k MAC 
- -t 1.000515000 -s 10 -d -1 -p AOMDV -e 110 -c 2 -a 0 -i 0 -k MAC
h -t 1.000515000 -s 10 -d -1 -p AOMDV -e 110 -c 2 -a 0 -i 0 -k MAC
r -t 1.001395310 -s 6 -d -1 -p AOMDV -e 52 -c 2 -a 0 -i 0 -k MAC
r -t 1.001395593 -s 9 -d -1 -p AOMDV -e 52 -c 2 -a 0 -i 0 -k MAC
r -t 1.001395595 -s 8 -d -1 -p AOMDV -e 52 -c 2 -a 0 -i 0 -k MAC
r -t 1.001420310 -s 6 -d -1 -p AOMDV -e 52 -c 2 -a 0 -i 0 -k RTR
r -t 1.001420593 -s 9 -d -1 -p AOMDV -e 52 -c 2 -a 0 -i 0 -k RTR
+ -t 1.001420593 -s 9 -d 10 -p AOMDV -e 52 -c 2 -a 0 -i 0 -k RTR 
- -t 1.001420593 -s 9 -d 10 -p AOMDV -e 52 -c 2 -a 0 -i 0 -k RTR
h -t 1.001420593 -s 9 -d 10 -p AOMDV -e 52 -c 2 -a 0 -i 0 -k RTR
r -t 1.001420595 -s 8 -d -1 -p AOMDV -e 52 -c 2 -a 0 -i 0 -k RTR
+ -t 1.001835593 -s 9 -d -1 -p ARP -e 86 -c 2 -a 0 -i 0 -k MAC 
- -t 1.001835593 -s 9 -d -1 -p ARP -e 86 -c 2 -a 0 -i 0 -k MAC
h -t 1.001835593 -s 9 -d -1 -p ARP -e 86 -c 2 -a 0 -i 0 -k MAC
r -t 1.002524185 -s 10 -d -1 -p ARP -e 28 -c 2 -a 0 -i 0 -k MAC
+ -t 1.002774185 -s 10 -d -1 -p RTS -e 44 -c 2 -a 0 -i 0 -k MAC 
- -t 1.002774185 -s 10 -d -1 -p RTS -e 44 -c 2 -a 0 -i 0 -k MAC
h -t 1.002774185 -s 10 -d -1 -p RTS -e 44 -c 2 -a 0 -i 0 -k MAC
r -t 1.003126778 -s 9 -d -1 -p RTS -e 44 -c 2 -a 0 -i 0 -k MAC
+ -t 1.003136778 -s 9 -d -1 -p CTS -e 38 -c 2 -a 0 -i 0 -k MAC 
- -t 1.003136778 -s 9 -d -1 -p CTS -e 38 -c 2 -a 0 -i 0 -k MAC
h -t 1.003136778 -s 9 -d -1 -p CTS -e 38 -c 2 -a 0 -i 0 -k MAC
r -t 1.003441371 -s 10 -d -1 -p CTS -e 38 -c 2 -a 0 -i 0 -k MAC
+ -t 1.003451371 -s 10 -d -1 -p ARP -e 86 -c 2 -a 0 -i 0 -k MAC 
- -t 1.003451371 -s 10 -d -1 -p ARP -e 86 -c 2 -a 0 -i 0 -k MAC
h -t 1.003451371 -s 10 -d -1 -p ARP -e 86 -c 2 -a 0 -i 0 -k MAC
+ -t 1.003592189 -s 8 -d -1 -p AOMDV -e 52 -c 2 -a 0 -i 0 -k RTR 
- -t 1.003592189 -s 8 -d -1 -p AOMDV -e 52 -c 2 -a 0 -i 0 -k RTR
h -t 1.003592189 -s 8 -d -1 -p AOMDV -e 52 -c 2 -a 0 -i 0 -k RTR
r -t 1.004139964 -s 9 -d -1 -p ARP -e 28 -c 2 -a 0 -i 0 -k MAC
+ -t 1.004149964 -s 9 -d -1 -p ACK -e 38 -c 2 -a 0 -i 0 -k MAC 
- -t 1.004149964 -s 9 -d -1 -p ACK -e 38 -c 2 -a 0 -i 0 -k MAC
h -t 1.004149964 -s 9 -d -1 -p ACK -e 38 -c 2 -a 0 -i 0 -k MAC
r -t 1.004454556 -s 10 -d -1 -p ACK -e 38 -c 2 -a 0 -i 0 -k MAC
+ -t 1.004583964 -s 9 -d -1 -p RTS -e 44 -c 2 -a 0 -i 0 -k MAC 
- -t 1.004583964 -s 9 -d -1 -p RTS -e 44 -c 2 -a 0 -i 0 -k MAC
h -t 1.004583964 -s 9 -d -1 -p RTS -e 44 -c 2 -a 0 -i 0 -k MAC
r -t 1.004936556 -s 10 -d -1 -p RTS -e 44 -c 2 -a 0 -i 0 -k MAC
+ -t 1.004946556 -s 10 -d -1 -p CTS -e 38 -c 2 -a 0 -i 0 -k MAC 
- -t 1.004946556 -s 10 -d -1 -p CTS -e 38 -c 2 -a 0 -i 0 -k MAC
h -t 1.004946556 -s 10 -d -1 -p CTS -e 38 -c 2 -a 0 -i 0 -k MAC
r -t 1.005251149 -s 9 -d -1 -p CTS -e 38 -c 2 -a 0 -i 0 -k MAC
+ -t 1.005261149 -s 9 -d 10 -p AOMDV -e 110 -c 2 -a 0 -i 0 -k MAC 
- -t 1.005261149 -s 9 -d 10 -p AOMDV -e 110 -c 2 -a 0 -i 0 -k MAC
h -t 1.005261149 -s 9 -d 10 -p AOMDV -e 110 -c 2 -a 0 -i 0 -k MAC
r -t 1.006141742 -s 10 -d 10 -p AOMDV -e 52 -c 2 -a 0 -i 0 -k MAC
+ -t 1.006151742 -s 10 -d -1 -p ACK -e 38 -c 2 -a 0 -i 0 -k MAC 
- -t 1.006151742 -s 10 -d -1 -p ACK -e 38 -c 2 -a 0 -i 0 -k MAC
h -t 1.006151742 -s 10 -d -1 -p ACK -e 38 -c 2 -a 0 -i 0 -k MAC
+ -t 1.006166742 -s 10 -d 9 -p tcp -e 60 -c 2 -a 0 -i 1 -k RTR 
- -t 1.006166742 -s 10 -d 9 -p tcp -e 60 -c 2 -a 0 -i 1 -k RTR
h -t 1.006166742 -s 10 -d 9 -p tcp -e 60 -c 2 -a 0 -i 1 -k RTR
r -t 1.006456335 -s 9 -d -1 -p ACK -e 38 -c 2 -a 0 -i 0 -k MAC
+ -t 1.006705742 -s 10 -d -1 -p RTS -e 44 -c 2 -a 0 -i 0 -k MAC 
- -t 1.006705742 -s 10 -d -1 -p RTS -e 44 -c 2 -a 0 -i 0 -k MAC
h -t 1.006705742 -s 10 -d -1 -p RTS -e 44 -c 2 -a 0 -i 0 -k MAC
r -t 1.007058335 -s 9 -d -1 -p RTS -e 44 -c 2 -a 0 -i 0 -k MAC
+ -t 1.007068335 -s 9 -d -1 -p CTS -e 38 -c 2 -a 0 -i 0 -k MAC 
- -t 1.007068335 -s 9 -d -1 -p CTS -e 38 -c 2 -a 0 -i 0 -k MAC
h -t 1.007068335 -s 9 -d -1 -p CTS -e 38 -c 2 -a 0 -i 0 -k MAC
r -t 1.007372928 -s 10 -d -1 -p CTS -e 38 -c 2 -a 0 -i 0 -k MAC
+ -t 1.007382928 -s 10 -d 9 -p tcp -e 118 -c 2 -a 0 -i 1 -k MAC 
- -t 1.007382928 -s 10 -d 9 -p tcp -e 118 -c 2 -a 0 -i 1 -k MAC
h -t 1.007382928 -s 10 -d 9 -p tcp -e 118 -c 2 -a 0 -i 1 -k MAC
r -t 1.008327521 -s 9 -d 9 -p tcp -e 60 -c 2 -a 0 -i 1 -k MAC
+ -t 1.008337521 -s 9 -d -1 -p ACK -e 38 -c 2 -a 0 -i 0 -k MAC 
- -t 1.008337521 -s 9 -d -1 -p ACK -e 38 -c 2 -a 0 -i 0 -k MAC
h -t 1.008337521 -s 9 -d -1 -p ACK -e 38 -c 2 -a 0 -i 0 -k MAC
r -t 1.008352521 -s 9 -d 9 -p tcp -e 60 -c 2 -a 0 -i 1 -k AGT
+ -t 1.008352521 -s 9 -d -1 -p ack -e 40 -c 2 -a 0 -i 2 -k AGT 
- -t 1.008352521 -s 9 -d -1 -p ack -e 40 -c 2 -a 0 -i 2 -k AGT
h -t 1.008352521 -s 9 -d -1 -p ack -e 40 -c 2 -a 0 -i 2 -k AGT
+ -t 1.008352521 -s 9 -d 10 -p ack -e 60 -c 2 -a 0 -i 2 -k RTR 
- -t 1.008352521 -s 9 -d 10 -p ack -e 60 -c 2 -a 0 -i 2 -k RTR
h -t 1.008352521 -s 9 -d 10 -p ack -e 60 -c 2 -a 0 -i 2 -k RTR
r -t 1.008642113 -s 10 -d -1 -p ACK -e 38 -c 2 -a 0 -i 0 -k MAC
+ -t 1.009211521 -s 9 -d -1 -p RTS -e 44 -c 2 -a 0 -i 0 -k MAC 
- -t 1.009211521 -s 9 -d -1 -p RTS -e 44 -c 2 -a 0 -i 0 -k MAC
h -t 1.009211521 -s 9 -d -1 -p RTS -e 44 -c 2 -a 0 -i 0 -k MAC
r -t 1.009564113 -s 10 -d -1 -p RTS -e 44 -c 2 -a 0 -i 0 -k MAC
+ -t 1.009574113 -s 10 -d -1 -p CTS -e 38 -c 2 -a 0 -i 0 -k MAC 
- -t 1.009574113 -s 10 -d -1 -p CTS -e 38 -c 2 -a 0 -i 0 -k MAC
h -t 1.009574113 -s 10 -d -1 -p CTS -e 38 -c 2 -a 0 -i 0 -k MAC
+ -t 1.009818562 -s 6 -d -1 -p AOMDV -e 52 -c 2 -a 0 -i 0 -k RTR 
- -t 1.009818562 -s 6 -d -1 -p AOMDV -e 52 -c 2 -a 0 -i 0 -k RTR
h -t 1.009818562 -s 6 -d -1 -p AOMDV -e 52 -c 2 -a 0 -i 0 -k RTR
r -t 1.009878706 -s 9 -d -1 -p CTS -e 38 -c 2 -a 0 -i 0 -k MAC
+ -t 1.009888706 -s 9 -d 10 -p ack -e 118 -c 2 -a 0 -i 2 -k MAC 
- -t 1.009888706 -s 9 -d 10 -p ack -e 118 -c 2 -a 0 -i 2 -k MAC
h -t 1.009888706 -s 9 -d 10 -p ack -e 118 -c 2 -a 0 -i 2 -k MAC
r -t 1.010833299 -s 10 -d 10 -p ack -e 60 -c 2 -a 0 -i 2 -k MAC
+ -t 1.010843299 -s 10 -d -1 -p ACK -e 38 -c 2 -a 0 -i 0 -k MAC 
- -t 1.010843299 -s 10 -d -1 -p ACK -e 38 -c 2 -a 0 -i 0 -k MAC
h -t 1.010843299 -s 10 -d -1 -p ACK -e 38 -c 2 -a 0 -i 0 -k MAC
r -t 1.010858299 -s 10 -d 10 -p ack -e 60 -c 2 -a 0 -i 2 -k AGT
+ -t 1.010858299 -s 10 -d -1 -p tcp -e 1540 -c 2 -a 0 -i 3 -k AGT 
- -t 1.010858299 -s 10 -d -1 -p tcp -e 1540 -c 2 -a 0 -i 3 -k AGT
h -t 1.010858299 -s 10 -d -1 -p tcp -e 1540 -c 2 -a 0 -i 3 -k AGT
+ -t 1.010858299 -s 10 -d -1 -p tcp -e 1540 -c 2 -a 0 -i 4 -k AGT 
- -t 1.010858299 -s 10 -d -1 -p tcp -e 1540 -c 2 -a 0 -i 4 -k AGT
h -t 1.010858299 -s 10 -d -1 -p tcp -e 1540 -c 2 -a 0 -i 4 -k AGT
+ -t 1.010858299 -s 10 -d 9 -p tcp -e 1560 -c 2 -a 0 -i 3 -k RTR 
- -t 1.010858299 -s 10 -d 9 -p tcp -e 1560 -c 2 -a 0 -i 3 -k RTR
h -t 1.010858299 -s 10 -d 9 -p tcp -e 1560 -c 2 -a 0 -i 3 -k RTR
+ -t 1.010858299 -s 10 -d 9 -p tcp -e 1560 -c 2 -a 0 -i 4 -k RTR 
- -t 1.010858299 -s 10 -d 9 -p tcp -e 1560 -c 2 -a 0 -i 4 -k RTR
h -t 1.010858299 -s 10 -d 9 -p tcp -e 1560 -c 2 -a 0 -i 4 -k RTR
r -t 1.011147892 -s 9 -d -1 -p ACK -e 38 -c 2 -a 0 -i 0 -k MAC
+ -t 1.011317299 -s 10 -d -1 -p RTS -e 44 -c 2 -a 0 -i 0 -k MAC 
- -t 1.011317299 -s 10 -d -1 -p RTS -e 44 -c 2 -a 0 -i 0 -k MAC
h -t 1.011317299 -s 10 -d -1 -p RTS -e 44 -c 2 -a 0 -i 0 -k MAC
r -t 1.011669892 -s 9 -d -1 -p RTS -e 44 -c 2 -a 0 -i 0 -k MAC
+ -t 1.011679892 -s 9 -d -1 -p CTS -e 38 -c 2 -a 0 -i 0 -k MAC 
- -t 1.011679892 -s 9 -d -1 -p CTS -e 38 -c 2 -a 0 -i 0 -k MAC
h -t 1.011679892 -s 9 -d -1 -p CTS -e 38 -c 2 -a 0 -i 0 -k MAC
r -t 1.011984485 -s 10 -d -1 -p CTS -e 38 -c 2 -a 0 -i 0 -k MAC
+ -t 1.011994485 -s 10 -d 9 -p tcp -e 1618 -c 2 -a 0 -i 3 -k MAC 
- -t 1.011994485 -s 10 -d 9 -p tcp -e 1618 -c 2 -a 0 -i 3 -k MAC
h -t 1.011994485 -s 10 -d 9 -p tcp -e 1618 -c 2 -a 0 -i 3 -k MAC
r -t 1.024939078 -s 9 -d 9 -p tcp -e 1560 -c 2 -a 0 -i 3 -k MAC
+ -t 1.024949078 -s 9 -d -1 -p ACK -e 38 -c 2 -a 0 -i 0 -k MAC 
- -t 1.024949078 -s 9 -d -1 -p ACK -e 38 -c 2 -a 0 -i 0 -k MAC
h -t 1.024949078 -s 9 -d -1 -p ACK -e 38 -c 2 -a 0 -i 0 -k MAC
r -t 1.024964078 -s 9 -d 9 -p tcp -e 1560 -c 2 -a 0 -i 3 -k AGT
+ -t 1.024964078 -s 9 -d -1 -p ack -e 40 -c 2 -a 0 -i 5 -k AGT 
- -t 1.024964078 -s 9 -d -1 -p ack -e 40 -c 2 -a 0 -i 5 -k AGT
h -t 1.024964078 -s 9 -d -1 -p ack -e 40 -c 2 -a 0 -i 5 -k AGT
+ -t 1.024964078 -s 9 -d 10 -p ack -e 60 -c 2 -a 0 -i 5 -k RTR 
- -t 1.024964078 -s 9 -d 10 -p ack -e 60 -c 2 -a 0 -i 5 -k RTR
h -t 1.024964078 -s 9 -d 10 -p ack -e 60 -c 2 -a 0 -i 5 -k RTR
r -t 1.025253671 -s 10 -d -1 -p ACK -e 38 -c 2 -a 0 -i 0 -k MAC
+ -t 1.025463671 -s 10 -d -1 -p RTS -e 44 -c 2 -a 0 -i 0 -k MAC 
- -t 1.025463671 -s 10 -d -1 -p RTS -e 44 -c 2 -a 0 -i 0 -k MAC
h -t 1.025463671 -s 10 -d -1 -p RTS -e 44 -c 2 -a 0 -i 0 -k MAC
r -t 1.025816264 -s 9 -d -1 -p RTS -e 44 -c 2 -a 0 -i 0 -k MAC
+ -t 1.025826264 -s 9 -d -1 -p CTS -e 38 -c 2 -a 0 -i 0 -k MAC 
- -t 1.025826264 -s 9 -d -1 -p CTS -e 38 -c 2 -a 0 -i 0 -k MAC
h -t 1.025826264 -s 9 -d -1 -p CTS -e 38 -c 2 -a 0 -i 0 -k MAC
r -t 1.026130858 -s 10 -d -1 -p CTS -e 38 -c 2 -a 0 -i 0 -k MAC
+ -t 1.026140858 -s 10 -d 9 -p tcp -e 1618 -c 2 -a 0 -i 4 -k MAC 
- -t 1.026140858 -s 10 -d 9 -p tcp -e 1618 -c 2 -a 0 -i 4 -k MAC
h -t 1.026140858 -s 10 -d 9 -p tcp -e 1618 -c 2 -a 0 -i 4 -k MAC
r -t 1.039085451 -s 9 -d 9 -p tcp -e 1560 -c 2 -a 0 -i 4 -k MAC
+ -t 1.039095451 -s 9 -d -1 -p ACK -e 38 -c 2 -a 0 -i 0 -k MAC 
- -t 1.039095451 -s 9 -d -1 -p ACK -e 38 -c 2 -a 0 -i 0 -k MAC
h -t 1.039095451 -s 9 -d -1 -p ACK -e 38 -c 2 -a 0 -i 0 -k MAC
r -t 1.039110451 -s 9 -d 9 -p tcp -e 1560 -c 2 -a 0 -i 4 -k AGT
+ -t 1.039110451 -s 9 -d -1 -p ack -e 40 -c 2 -a 0 -i 6 -k AGT 
- -t 1.039110451 -s 9 -d -1 -p ack -e 40 -c 2 -a 0 -i 6 -k AGT
h -t 1.039110451 -s 9 -d -1 -p ack -e 40 -c 2 -a 0 -i 6 -k AGT
+ -t 1.039110451 -s 9 -d 10 -p ack -e 60 -c 2 -a 0 -i 6 -k RTR 
- -t 1.039110451 -s 9 -d 10 -p ack -e 60 -c 2 -a 0 -i 6 -k RTR
h -t 1.039110451 -s 9 -d 10 -p ack -e 60 -c 2 -a 0 -i 6 -k RTR
r -t 1.039400044 -s 10 -d -1 -p ACK -e 38 -c 2 -a 0 -i 0 -k MAC
+ -t 1.039509451 -s 9 -d -1 -p RTS -e 44 -c 2 -a 0 -i 0 -k MAC 
- -t 1.039509451 -s 9 -d -1 -p RTS -e 44 -c 2 -a 0 -i 0 -k MAC
h -t 1.039509451 -s 9 -d -1 -p RTS -e 44 -c 2 -a 0 -i 0 -k MAC
r -t 1.039862044 -s 10 -d -1 -p RTS -e 44 -c 2 -a 0 -i 0 -k MAC
+ -t 1.039872044 -s 10 -d -1 -p CTS -e 38 -c 2 -a 0 -i 0 -k MAC 
- -t 1.039872044 -s 10 -d -1 -p CTS -e 38 -c 2 -a 0 -i 0 -k MAC
h -t 1.039872044 -s 10 -d -1 -p CTS -e 38 -c 2 -a 0 -i 0 -k MAC
r -t 1.040176638 -s 9 -d -1 -p CTS -e 38 -c 2 -a 0 -i 0 -k MAC
+ -t 1.040186638 -s 9 -d 10 -p ack -e 118 -c 2 -a 0 -i 5 -k MAC 
- -t 1.040186638 -s 9 -d 10 -p ack -e 118 -c 2 -a 0 -i 5 -k MAC
h -t 1.040186638 -s 9 -d 10 -p ack -e 118 -c 2 -a 0 -i 5 -k MAC
r -t 1.041131231 -s 10 -d 10 -p ack -e 60 -c 2 -a 0 -i 5 -k MAC
+ -t 1.041141231 -s 10 -d -1 -p ACK -e 38 -c 2 -a 0 -i 0 -k MAC 
- -t 1.041141231 -s 10 -d -1 -p ACK -e 38 -c 2 -a 0 -i 0 -k MAC
h -t 1.041141231 -s 10 -d -1 -p ACK -e 38 -c 2 -a 0 -i 0 -k MAC
r -t 1.041156231 -s 10 -d 10 -p ack -e 60 -c 2 -a 0 -i 5 -k AGT
+ -t 1.041156231 -s 10 -d -1 -p tcp -e 1540 -c 2 -a 0 -i 7 -k AGT 
- -t 1.041156231 -s 10 -d -1 -p tcp -e 1540 -c 2 -a 0 -i 7 -k AGT
h -t 1.041156231 -s 10 -d -1 -p tcp -e 1540 -c 2 -a 0 -i 7 -k AGT
+ -t 1.041156231 -s 10 -d -1 -p tcp -e 1540 -c 2 -a 0 -i 8 -k AGT 
- -t 1.041156231 -s 10 -d -1 -p tcp -e 1540 -c 2 -a 0 -i 8 -k AGT
h -t 1.041156231 -s 10 -d -1 -p tcp -e 1540 -c 2 -a 0 -i 8 -k AGT
+ -t 1.041156231 -s 10 -d 9 -p tcp -e 1560 -c 2 -a 0 -i 7 -k RTR 
- -t 1.041156231 -s 10 -d 9 -p tcp -e 1560 -c 2 -a 0 -i 7 -k RTR
h -t 1.041156231 -s 10 -d 9 -p tcp -e 1560 -c 2 -a 0 -i 7 -k RTR
+ -t 1.041156231 -s 10 -d 9 -p tcp -e 1560 -c 2 -a 0 -i 8 -k RTR 
- -t 1.041156231 -s 10 -d 9 -p tcp -e 1560 -c 2 -a 0 -i 8 -k RTR
h -t 1.041156231 -s 10 -d 9 -p tcp -e 1560 -c 2 -a 0 -i 8 -k RTR
r -t 1.041445825 -s 9 -d -1 -p ACK -e 38 -c 2 -a 0 -i 0 -k MAC
+ -t 1.041565737 -s 8 -d -1 -p AOMDV -e 110 -c 2 -a 0 -i 0 -k MAC 
- -t 1.041565737 -s 8 -d -1 -p AOMDV -e 110 -c 2 -a 0 -i 0 -k MAC
h -t 1.041565737 -s 8 -d -1 -p AOMDV -e 110 -c 2 -a 0 -i 0 -k MAC
r -t 1.042446018 -s 6 -d -1 -p AOMDV -e 52 -c 2 -a 0 -i 0 -k MAC
r -t 1.042446176 -s 5 -d -1 -p AOMDV -e 52 -c 2 -a 0 -i 0 -k MAC
r -t 1.042446273 -s 7 -d -1 -p AOMDV -e 52 -c 2 -a 0 -i 0 -k MAC
r -t 1.042446292 -s 1 -d -1 -p AOMDV -e 52 -c 2 -a 0 -i 0 -k MAC
r -t 1.042446327 -s 10 -d -1 -p AOMDV -e 52 -c 2 -a 0 -i 0 -k MAC
r -t 1.042471018 -s 6 -d -1 -p AOMDV -e 52 -c 2 -a 0 -i 0 -k RTR
r -t 1.042471176 -s 5 -d -1 -p AOMDV -e 52 -c 2 -a 0 -i 0 -k RTR
r -t 1.042471273 -s 7 -d -1 -p AOMDV -e 52 -c 2 -a 0 -i 0 -k RTR
r -t 1.042471292 -s 1 -d -1 -p AOMDV -e 52 -c 2 -a 0 -i 0 -k RTR
r -t 1.042471327 -s 10 -d -1 -p AOMDV -e 52 -c 2 -a 0 -i 0 -k RTR
+ -t 1.042656327 -s 10 -d -1 -p RTS -e 44 -c 2 -a 0 -i 0 -k MAC 
- -t 1.042656327 -s 10 -d -1 -p RTS -e 44 -c 2 -a 0 -i 0 -k MAC
h -t 1.042656327 -s 10 -d -1 -p RTS -e 44 -c 2 -a 0 -i 0 -k MAC
+ -t 1.042972626 -s 1 -d -1 -p AOMDV -e 52 -c 2 -a 0 -i 0 -k RTR 
- -t 1.042972626 -s 1 -d -1 -p AOMDV -e 52 -c 2 -a 0 -i 0 -k RTR
h -t 1.042972626 -s 1 -d -1 -p AOMDV -e 52 -c 2 -a 0 -i 0 -k RTR
r -t 1.043008920 -s 9 -d -1 -p RTS -e 44 -c 2 -a 0 -i 0 -k MAC
+ -t 1.043018920 -s 9 -d -1 -p CTS -e 38 -c 2 -a 0 -i 0 -k MAC 
- -t 1.043018920 -s 9 -d -1 -p CTS -e 38 -c 2 -a 0 -i 0 -k MAC
h -t 1.043018920 -s 9 -d -1 -p CTS -e 38 -c 2 -a 0 -i 0 -k MAC
r -t 1.043323514 -s 10 -d -1 -p CTS -e 38 -c 2 -a 0 -i 0 -k MAC
+ -t 1.043333514 -s 10 -d 9 -p tcp -e 1618 -c 2 -a 0 -i 7 -k MAC 
- -t 1.043333514 -s 10 -d 9 -p tcp -e 1618 -c 2 -a 0 -i 7 -k MAC
h -t 1.043333514 -s 10 -d 9 -p tcp -e 1618 -c 2 -a 0 -i 7 -k MAC
+ -t 1.043384745 -s 5 -d -1 -p AOMDV -e 52 -c 2 -a 0 -i 0 -k RTR 
- -t 1.043384745 -s 5 -d -1 -p AOMDV -e 52 -c 2 -a 0 -i 0 -k RTR
h -t 1.043384745 -s 5 -d -1 -p AOMDV -e 52 -c 2 -a 0 -i 0 -k RTR
+ -t 1.047388490 -s 7 -d -1 -p AOMDV -e 52 -c 2 -a 0 -i 0 -k RTR 
- -t 1.047388490 -s 7 -d -1 -p AOMDV -e 52 -c 2 -a 0 -i 0 -k RTR
h -t 1.047388490 -s 7 -d -1 -p AOMDV -e 52 -c 2 -a 0 -i 0 -k RTR
r -t 1.056278107 -s 9 -d 9 -p tcp -e 1560 -c 2 -a 0 -i 7 -k MAC
+ -t 1.056288107 -s 9 -d -1 -p ACK -e 38 -c 2 -a 0 -i 0 -k MAC 
- -t 1.056288107 -s 9 -d -1 -p ACK -e 38 -c 2 -a 0 -i 0 -k MAC
h -t 1.056288107 -s 9 -d -1 -p ACK -e 38 -c 2 -a 0 -i 0 -k MAC
r -t 1.056303107 -s 9 -d 9 -p tcp -e 1560 -c 2 -a 0 -i 7 -k AGT
+ -t 1.056303107 -s 9 -d -1 -p ack -e 40 -c 2 -a 0 -i 9 -k AGT 
- -t 1.056303107 -s 9 -d -1 -p ack -e 40 -c 2 -a 0 -i 9 -k AGT
h -t 1.056303107 -s 9 -d -1 -p ack -e 40 -c 2 -a 0 -i 9 -k AGT
+ -t 1.056303107 -s 9 -d 10 -p ack -e 60 -c 2 -a 0 -i 9 -k RTR 
- -t 1.056303107 -s 9 -d 10 -p ack -e 60 -c 2 -a 0 -i 9 -k RTR
h -t 1.056303107 -s 9 -d 10 -p ack -e 60 -c 2 -a 0 -i 9 -k RTR
r -t 1.056592701 -s 10 -d -1 -p ACK -e 38 -c 2 -a 0 -i 0 -k MAC
+ -t 1.056702701 -s 10 -d -1 -p RTS -e 44 -c 2 -a 0 -i 0 -k MAC 
- -t 1.056702701 -s 10 -d -1 -p RTS -e 44 -c 2 -a 0 -i 0 -k MAC
h -t 1.056702701 -s 10 -d -1 -p RTS -e 44 -c 2 -a 0 -i 0 -k MAC
r -t 1.057055295 -s 9 -d -1 -p RTS -e 44 -c 2 -a 0 -i 0 -k MAC
+ -t 1.057065295 -s 9 -d -1 -p CTS -e 38 -c 2 -a 0 -i 0 -k MAC 
- -t 1.057065295 -s 9 -d -1 -p CTS -e 38 -c 2 -a 0 -i 0 -k MAC
h -t 1.057065295 -s 9 -d -1 -p CTS -e 38 -c 2 -a 0 -i 0 -k MAC
r -t 1.057369889 -s 10 -d -1 -p CTS -e 38 -c 2 -a 0 -i 0 -k MAC
+ -t 1.057379889 -s 10 -d 9 -p tcp -e 1618 -c 2 -a 0 -i 8 -k MAC 
- -t 1.057379889 -s 10 -d 9 -p tcp -e 1618 -c 2 -a 0 -i 8 -k MAC
h -t 1.057379889 -s 10 -d 9 -p tcp -e 1618 -c 2 -a 0 -i 8 -k MAC
+ -t 1.069432572 -s 7 -d -1 -p AOMDV -e 44 -c 2 -a 0 -i 0 -k RTR 
- -t 1.069432572 -s 7 -d -1 -p AOMDV -e 44 -c 2 -a 0 -i 0 -k RTR
h -t 1.069432572 -s 7 -d -1 -p AOMDV -e 44 -c 2 -a 0 -i 0 -k RTR
r -t 1.070324483 -s 9 -d 9 -p tcp -e 1560 -c 2 -a 0 -i 8 -k MAC
+ -t 1.070334483 -s 9 -d -1 -p ACK -e 38 -c 2 -a 0 -i 0 -k MAC 
- -t 1.070334483 -s 9 -d -1 -p ACK -e 38 -c 2 -a 0 -i 0 -k MAC
h -t 1.070334483 -s 9 -d -1 -p ACK -e 38 -c 2 -a 0 -i 0 -k MAC
r -t 1.070349483 -s 9 -d 9 -p tcp -e 1560 -c 2 -a 0 -i 8 -k AGT
+ -t 1.070349483 -s 9 -d -1 -p ack -e 40 -c 2 -a 0 -i 10 -k AGT 
- -t 1.070349483 -s 9 -d -1 -p ack -e 40 -c 2 -a 0 -i 10 -k AGT
h -t 1.070349483 -s 9 -d -1 -p ack -e 40 -c 2 -a 0 -i 10 -k AGT
+ -t 1.070349483 -s 9 -d 10 -p ack -e 60 -c 2 -a 0 -i 10 -k RTR 
- -t 1.070349483 -s 9 -d 10 -p ack -e 60 -c 2 -a 0 -i 10 -k RTR
h -t 1.070349483 -s 9 -d 10 -p ack -e 60 -c 2 -a 0 -i 10 -k RTR
r -t 1.070639077 -s 10 -d -1 -p ACK -e 38 -c 2 -a 0 -i 0 -k MAC
+ -t 1.070808483 -s 9 -d -1 -p RTS -e 44 -c 2 -a 0 -i 0 -k MAC 
- -t 1.070808483 -s 9 -d -1 -p RTS -e 44 -c 2 -a 0 -i 0 -k MAC
h -t 1.070808483 -s 9 -d -1 -p RTS -e 44 -c 2 -a 0 -i 0 -k MAC
r -t 1.071161077 -s 10 -d -1 -p RTS -e 44 -c 2 -a 0 -i 0 -k MAC
+ -t 1.071171077 -s 10 -d -1 -p CTS -e 38 -c 2 -a 0 -i 0 -k MAC 
- -t 1.071171077 -s 10 -d -1 -p CTS -e 38 -c 2 -a 0 -i 0 -k MAC
h -t 1.071171077 -s 10 -d -1 -p CTS -e 38 -c 2 -a 0 -i 0 -k MAC
r -t 1.071475671 -s 9 -d -1 -p CTS -e 38 -c 2 -a 0 -i 0 -k MAC
+ -t 1.071485671 -s 9 -d 10 -p ack -e 118 -c 2 -a 0 -i 6 -k MAC 
- -t 1.071485671 -s 9 -d 10 -p ack -e 118 -c 2 -a 0 -i 6 -k MAC
h -t 1.071485671 -s 9 -d 10 -p ack -e 118 -c 2 -a 0 -i 6 -k MAC
r -t 1.072430265 -s 10 -d 10 -p ack -e 60 -c 2 -a 0 -i 6 -k MAC
+ -t 1.072440265 -s 10 -d -1 -p ACK -e 38 -c 2 -a 0 -i 0 -k MAC 
- -t 1.072440265 -s 10 -d -1 -p ACK -e 38 -c 2 -a 0 -i 0 -k MAC
h -t 1.072440265 -s 10 -d -1 -p ACK -e 38 -c 2 -a 0 -i 0 -k MAC
r -t 1.072455265 -s 10 -d 10 -p ack -e 60 -c 2 -a 0 -i 6 -k AGT
+ -t 1.072455265 -s 10 -d -1 -p tcp -e 1540 -c 2 -a 0 -i 11 -k AGT 
- -t 1.072455265 -s 10 -d -1 -p tcp -e 1540 -c 2 -a 0 -i 11 -k AGT
h -t 1.072455265 -s 10 -d -1 -p tcp -e 1540 -c 2 -a 0 -i 11 -k AGT
+ -t 1.072455265 -s 10 -d -1 -p tcp -e 1540 -c 2 -a 0 -i 12 -k AGT 
- -t 1.072455265 -s 10 -d -1 -p tcp -e 1540 -c 2 -a 0 -i 12 -k AGT
h -t 1.072455265 -s 10 -d -1 -p tcp -e 1540 -c 2 -a 0 -i 12 -k AGT
+ -t 1.072455265 -s 10 -d 9 -p tcp -e 1560 -c 2 -a 0 -i 11 -k RTR 
- -t 1.072455265 -s 10 -d 9 -p tcp -e 1560 -c 2 -a 0 -i 11 -k RTR
h -t 1.072455265 -s 10 -d 9 -p tcp -e 1560 -c 2 -a 0 -i 11 -k RTR
+ -t 1.072455265 -s 10 -d 9 -p tcp -e 1560 -c 2 -a 0 -i 12 -k RTR 
- -t 1.072455265 -s 10 -d 9 -p tcp -e 1560 -c 2 -a 0 -i 12 -k RTR
h -t 1.072455265 -s 10 -d 9 -p tcp -e 1560 -c 2 -a 0 -i 12 -k RTR
r -t 1.072744859 -s 9 -d -1 -p ACK -e 38 -c 2 -a 0 -i 0 -k MAC
+ -t 1.072834859 -s 9 -d -1 -p RTS -e 44 -c 2 -a 0 -i 0 -k MAC 
- -t 1.072834859 -s 9 -d -1 -p RTS -e 44 -c 2 -a 0 -i 0 -k MAC
h -t 1.072834859 -s 9 -d -1 -p RTS -e 44 -c 2 -a 0 -i 0 -k MAC
r -t 1.073187453 -s 10 -d -1 -p RTS -e 44 -c 2 -a 0 -i 0 -k MAC
+ -t 1.073197453 -s 10 -d -1 -p CTS -e 38 -c 2 -a 0 -i 0 -k MAC 
- -t 1.073197453 -s 10 -d -1 -p CTS -e 38 -c 2 -a 0 -i 0 -k MAC
h -t 1.073197453 -s 10 -d -1 -p CTS -e 38 -c 2 -a 0 -i 0 -k MAC
r -t 1.073502048 -s 9 -d -1 -p CTS -e 38 -c 2 -a 0 -i 0 -k MAC
+ -t 1.073512048 -s 9 -d 10 -p ack -e 118 -c 2 -a 0 -i 9 -k MAC 
- -t 1.073512048 -s 9 -d 10 -p ack -e 118 -c 2 -a 0 -i 9 -k MAC
h -t 1.073512048 -s 9 -d 10 -p ack -e 118 -c 2 -a 0 -i 9 -k MAC
r -t 1.074456642 -s 10 -d 10 -p ack -e 60 -c 2 -a 0 -i 9 -k MAC
+ -t 1.074466642 -s 10 -d -1 -p ACK -e 38 -c 2 -a 0 -i 0 -k MAC 
- -t 1.074466642 -s 10 -d -1 -p ACK -e 38 -c 2 -a 0 -i 0 -k MAC
h -t 1.074466642 -s 10 -d -1 -p ACK -e 38 -c 2 -a 0 -i 0 -k MAC
r -t 1.074481642 -s 10 -d 10 -p ack -e 60 -c 2 -a 0 -i 9 -k AGT
+ -t 1.074481642 -s 10 -d -1 -p tcp -e 1540 -c 2 -a 0 -i 13 -k AGT 
- -t 1.074481642 -s 10 -d -1 -p tcp -e 1540 -c 2 -a 0 -i 13 -k AGT
h -t 1.074481642 -s 10 -d -1 -p tcp -e 1540 -c 2 -a 0 -i 13 -k AGT
+ -t 1.074481642 -s 10 -d -1 -p tcp -e 1540 -c 2 -a 0 -i 14 -k AGT 
- -t 1.074481642 -s 10 -d -1 -p tcp -e 1540 -c 2 -a 0 -i 14 -k AGT
h -t 1.074481642 -s 10 -d -1 -p tcp -e 1540 -c 2 -a 0 -i 14 -k AGT
+ -t 1.074481642 -s 10 -d 9 -p tcp -e 1560 -c 2 -a 0 -i 13 -k RTR 
- -t 1.074481642 -s 10 -d 9 -p tcp -e 1560 -c 2 -a 0 -i 13 -k RTR
h -t 1.074481642 -s 10 -d 9 -p tcp -e 1560 -c 2 -a 0 -i 13 -k RTR
+ -t 1.074481642 -s 10 -d 9 -p tcp -e 1560 -c 2 -a 0 -i 14 -k RTR 
- -t 1.074481642 -s 10 -d 9 -p tcp -e 1560 -c 2 -a 0 -i 14 -k RTR
h -t 1.074481642 -s 10 -d 9 -p tcp -e 1560 -c 2 -a 0 -i 14 -k RTR
r -t 1.074771236 -s 9 -d -1 -p ACK -e 38 -c 2 -a 0 -i 0 -k MAC
+ -t 1.074960642 -s 10 -d -1 -p RTS -e 44 -c 2 -a 0 -i 0 -k MAC 
- -t 1.074960642 -s 10 -d -1 -p RTS -e 44 -c 2 -a 0 -i 0 -k MAC
h -t 1.074960642 -s 10 -d -1 -p RTS -e 44 -c 2 -a 0 -i 0 -k MAC
r -t 1.075313236 -s 9 -d -1 -p RTS -e 44 -c 2 -a 0 -i 0 -k MAC
+ -t 1.075323236 -s 9 -d -1 -p CTS -e 38 -c 2 -a 0 -i 0 -k MAC 
- -t 1.075323236 -s 9 -d -1 -p CTS -e 38 -c 2 -a 0 -i 0 -k MAC
h -t 1.075323236 -s 9 -d -1 -p CTS -e 38 -c 2 -a 0 -i 0 -k MAC
r -t 1.075627830 -s 10 -d -1 -p CTS -e 38 -c 2 -a 0 -i 0 -k MAC
+ -t 1.075637830 -s 10 -d 9 -p tcp -e 1618 -c 2 -a 0 -i 11 -k MAC 
- -t 1.075637830 -s 10 -d 9 -p tcp -e 1618 -c 2 -a 0 -i 11 -k MAC
h -t 1.075637830 -s 10 -d 9 -p tcp -e 1618 -c 2 -a 0 -i 11 -k MAC
r -t 1.088582425 -s 9 -d 9 -p tcp -e 1560 -c 2 -a 0 -i 11 -k MAC
+ -t 1.088592425 -s 9 -d -1 -p ACK -e 38 -c 2 -a 0 -i 0 -k MAC 
- -t 1.088592425 -s 9 -d -1 -p ACK -e 38 -c 2 -a 0 -i 0 -k MAC
h -t 1.088592425 -s 9 -d -1 -p ACK -e 38 -c 2 -a 0 -i 0 -k MAC
r -t 1.088607425 -s 9 -d 9 -p tcp -e 1560 -c 2 -a 0 -i 11 -k AGT
+ -t 1.088607425 -s 9 -d -1 -p ack -e 40 -c 2 -a 0 -i 15 -k AGT 
- -t 1.088607425 -s 9 -d -1 -p ack -e 40 -c 2 -a 0 -i 15 -k AGT
h -t 1.088607425 -s 9 -d -1 -p ack -e 40 -c 2 -a 0 -i 15 -k AGT
+ -t 1.088607425 -s 9 -d 10 -p ack -e 60 -c 2 -a 0 -i 15 -k RTR 
- -t 1.088607425 -s 9 -d 10 -p ack -e 60 -c 2 -a 0 -i 15 -k RTR
h -t 1.088607425 -s 9 -d 10 -p ack -e 60 -c 2 -a 0 -i 15 -k RTR
r -t 1.088897019 -s 10 -d -1 -p ACK -e 38 -c 2 -a 0 -i 0 -k MAC
+ -t 1.089026425 -s 9 -d -1 -p RTS -e 44 -c 2 -a 0 -i 0 -k MAC 
- -t 1.089026425 -s 9 -d -1 -p RTS -e 44 -c 2 -a 0 -i 0 -k MAC
h -t 1.089026425 -s 9 -d -1 -p RTS -e 44 -c 2 -a 0 -i 0 -k MAC
r -t 1.089379019 -s 10 -d -1 -p RTS -e 44 -c 2 -a 0 -i 0 -k MAC
+ -t 1.089389019 -s 10 -d -1 -p CTS -e 38 -c 2 -a 0 -i 0 -k MAC 
- -t 1.089389019 -s 10 -d -1 -p CTS -e 38 -c 2 -a 0 -i 0 -k MAC
h -t 1.089389019 -s 10 -d -1 -p CTS -e 38 -c 2 -a 0 -i 0 -k MAC
r -t 1.089693614 -s 9 -d -1 -p CTS -e 38 -c 2 -a 0 -i 0 -k MAC
+ -t 1.089703614 -s 9 -d 10 -p ack -e 118 -c 2 -a 0 -i 10 -k MAC 
- -t 1.089703614 -s 9 -d 10 -p ack -e 118 -c 2 -a 0 -i 10 -k MAC
h -t 1.089703614 -s 9 -d 10 -p ack -e 118 -c 2 -a 0 -i 10 -k MAC
r -t 1.090648208 -s 10 -d 10 -p ack -e 60 -c 2 -a 0 -i 10 -k MAC
+ -t 1.090658208 -s 10 -d -1 -p ACK -e 38 -c 2 -a 0 -i 0 -k MAC 
- -t 1.090658208 -s 10 -d -1 -p ACK -e 38 -c 2 -a 0 -i 0 -k MAC
h -t 1.090658208 -s 10 -d -1 -p ACK -e 38 -c 2 -a 0 -i 0 -k MAC
r -t 1.090673208 -s 10 -d 10 -p ack -e 60 -c 2 -a 0 -i 10 -k AGT
+ -t 1.090673208 -s 10 -d -1 -p tcp -e 1540 -c 2 -a 0 -i 16 -k AGT 
- -t 1.090673208 -s 10 -d -1 -p tcp -e 1540 -c 2 -a 0 -i 16 -k AGT
h -t 1.090673208 -s 10 -d -1 -p tcp -e 1540 -c 2 -a 0 -i 16 -k AGT
+ -t 1.090673208 -s 10 -d -1 -p tcp -e 1540 -c 2 -a 0 -i 17 -k AGT 
- -t 1.090673208 -s 10 -d -1 -p tcp -e 1540 -c 2 -a 0 -i 17 -k AGT
h -t 1.090673208 -s 10 -d -1 -p tcp -e 1540 -c 2 -a 0 -i 17 -k AGT
+ -t 1.090673208 -s 10 -d 9 -p tcp -e 1560 -c 2 -a 0 -i 16 -k RTR 
- -t 1.090673208 -s 10 -d 9 -p tcp -e 1560 -c 2 -a 0 -i 16 -k RTR
h -t 1.090673208 -s 10 -d 9 -p tcp -e 1560 -c 2 -a 0 -i 16 -k RTR
+ -t 1.090673208 -s 10 -d 9 -p tcp -e 1560 -c 2 -a 0 -i 17 -k RTR 
- -t 1.090673208 -s 10 -d 9 -p tcp -e 1560 -c 2 -a 0 -i 17 -k RTR
h -t 1.090673208 -s 10 -d 9 -p tcp -e 1560 -c 2 -a 0 -i 17 -k RTR
r -t 1.090962803 -s 9 -d -1 -p ACK -e 38 -c 2 -a 0 -i 0 -k MAC
+ -t 1.091072208 -s 10 -d -1 -p RTS -e 44 -c 2 -a 0 -i 0 -k MAC 
- -t 1.091072208 -s 10 -d -1 -p RTS -e 44 -c 2 -a 0 -i 0 -k MAC
h -t 1.091072208 -s 10 -d -1 -p RTS -e 44 -c 2 -a 0 -i 0 -k MAC
r -t 1.091424803 -s 9 -d -1 -p RTS -e 44 -c 2 -a 0 -i 0 -k MAC
+ -t 1.091434803 -s 9 -d -1 -p CTS -e 38 -c 2 -a 0 -i 0 -k MAC 
- -t 1.091434803 -s 9 -d -1 -p CTS -e 38 -c 2 -a 0 -i 0 -k MAC
h -t 1.091434803 -s 9 -d -1 -p CTS -e 38 -c 2 -a 0 -i 0 -k MAC
r -t 1.091739397 -s 10 -d -1 -p CTS -e 38 -c 2 -a 0 -i 0 -k MAC
+ -t 1.091749397 -s 10 -d 9 -p tcp -e 1618 -c 2 -a 0 -i 12 -k MAC 
- -t 1.091749397 -s 10 -d 9 -p tcp -e 1618 -c 2 -a 0 -i 12 -k MAC
h -t 1.091749397 -s 10 -d 9 -p tcp -e 1618 -c 2 -a 0 -i 12 -k MAC
r -t 1.104693992 -s 9 -d 9 -p tcp -e 1560 -c 2 -a 0 -i 12 -k MAC
+ -t 1.104703992 -s 9 -d -1 -p ACK -e 38 -c 2 -a 0 -i 0 -k MAC 
- -t 1.104703992 -s 9 -d -1 -p ACK -e 38 -c 2 -a 0 -i 0 -k MAC
h -t 1.104703992 -s 9 -d -1 -p ACK -e 38 -c 2 -a 0 -i 0 -k MAC
r -t 1.104718992 -s 9 -d 9 -p tcp -e 1560 -c 2 -a 0 -i 12 -k AGT
+ -t 1.104718992 -s 9 -d -1 -p ack -e 40 -c 2 -a 0 -i 18 -k AGT 
- -t 1.104718992 -s 9 -d -1 -p ack -e 40 -c 2 -a 0 -i 18 -k AGT
h -t 1.104718992 -s 9 -d -1 -p ack -e 40 -c 2 -a 0 -i 18 -k AGT
+ -t 1.104718992 -s 9 -d 10 -p ack -e 60 -c 2 -a 0 -i 18 -k RTR 
- -t 1.104718992 -s 9 -d 10 -p ack -e 60 -c 2 -a 0 -i 18 -k RTR
h -t 1.104718992 -s 9 -d 10 -p ack -e 60 -c 2 -a 0 -i 18 -k RTR
r -t 1.105008587 -s 10 -d -1 -p ACK -e 38 -c 2 -a 0 -i 0 -k MAC
+ -t 1.105158587 -s 10 -d -1 -p RTS -e 44 -c 2 -a 0 -i 0 -k MAC 
- -t 1.105158587 -s 10 -d -1 -p RTS -e 44 -c 2 -a 0 -i 0 -k MAC
h -t 1.105158587 -s 10 -d -1 -p RTS -e 44 -c 2 -a 0 -i 0 -k MAC
r -t 1.105511181 -s 9 -d -1 -p RTS -e 44 -c 2 -a 0 -i 0 -k MAC
+ -t 1.105521181 -s 9 -d -1 -p CTS -e 38 -c 2 -a 0 -i 0 -k MAC 
- -t 1.105521181 -s 9 -d -1 -p CTS -e 38 -c 2 -a 0 -i 0 -k MAC
h -t 1.105521181 -s 9 -d -1 -p CTS -e 38 -c 2 -a 0 -i 0 -k MAC
r -t 1.105825776 -s 10 -d -1 -p CTS -e 38 -c 2 -a 0 -i 0 -k MAC
+ -t 1.105835776 -s 10 -d 9 -p tcp -e 1618 -c 2 -a 0 -i 13 -k MAC 
- -t 1.105835776 -s 10 -d 9 -p tcp -e 1618 -c 2 -a 0 -i 13 -k MAC
h -t 1.105835776 -s 10 -d 9 -p tcp -e 1618 -c 2 -a 0 -i 13 -k MAC
r -t 1.118780371 -s 9 -d 9 -p tcp -e 1560 -c 2 -a 0 -i 13 -k MAC
+ -t 1.118790371 -s 9 -d -1 -p ACK -e 38 -c 2 -a 0 -i 0 -k MAC 
- -t 1.118790371 -s 9 -d -1 -p ACK -e 38 -c 2 -a 0 -i 0 -k MAC
h -t 1.118790371 -s 9 -d -1 -p ACK -e 38 -c 2 -a 0 -i 0 -k MAC
r -t 1.118805371 -s 9 -d 9 -p tcp -e 1560 -c 2 -a 0 -i 13 -k AGT
+ -t 1.118805371 -s 9 -d -1 -p ack -e 40 -c 2 -a 0 -i 19 -k AGT 
- -t 1.118805371 -s 9 -d -1 -p ack -e 40 -c 2 -a 0 -i 19 -k AGT
h -t 1.118805371 -s 9 -d -1 -p ack -e 40 -c 2 -a 0 -i 19 -k AGT
+ -t 1.118805371 -s 9 -d 10 -p ack -e 60 -c 2 -a 0 -i 19 -k RTR 
- -t 1.118805371 -s 9 -d 10 -p ack -e 60 -c 2 -a 0 -i 19 -k RTR
h -t 1.118805371 -s 9 -d 10 -p ack -e 60 -c 2 -a 0 -i 19 -k RTR
r -t 1.119094966 -s 10 -d -1 -p ACK -e 38 -c 2 -a 0 -i 0 -k MAC
+ -t 1.119164966 -s 10 -d -1 -p RTS -e 44 -c 2 -a 0 -i 0 -k MAC 
- -t 1.119164966 -s 10 -d -1 -p RTS -e 44 -c 2 -a 0 -i 0 -k MAC
h -t 1.119164966 -s 10 -d -1 -p RTS -e 44 -c 2 -a 0 -i 0 -k MAC
r -t 1.119517561 -s 9 -d -1 -p RTS -e 44 -c 2 -a 0 -i 0 -k MAC
+ -t 1.119527561 -s 9 -d -1 -p CTS -e 38 -c 2 -a 0 -i 0 -k MAC 
- -t 1.119527561 -s 9 -d -1 -p CTS -e 38 -c 2 -a 0 -i 0 -k MAC
h -t 1.119527561 -s 9 -d -1 -p CTS -e 38 -c 2 -a 0 -i 0 -k MAC
r -t 1.119832156 -s 10 -d -1 -p CTS -e 38 -c 2 -a 0 -i 0 -k MAC