M 0.00000 1 (482.00, 637.00, 0.00), (500.00, 30.00), 25.00
M 0.00000 4 (233.00, 949.00, 0.00), (300.00, 500.00), 5.00
M 0.00000 5 (354.00, 555.00, 0.00), (102.00, 200.00), 30.00
M 0.00000 8 (456.00, 471.00, 0.00), (134.00, 30.00), 25.00
M 0.00000 11 (475.00, 985.00, 0.00), (500.00, 30.00), 5.00
s -t 0.034809998 -Hs 0 -Hd -1 -Ni 0 -Nx 995.00 -Ny 556.00 -Nz 0.00 -Ne 50.000000 -Nl RTR -Nw --- -Ma 0 -Md 0 -Ms 0 -Mt 0 -Is 0.255 -Id -1.255 -It message -Il 32 -If 0 -Ii 0 -Iv 32 
s -t 0.035124998 -Hs 0 -Hd -1 -Ni 0 -Nx 995.00 -Ny 556.00 -Nz 0.00 -Ne 50.000000 -Nl MAC -Nw --- -Ma 0 -Md ffffffff -Ms 0 -Mt 800 -Is 0.255 -Id -1.255 -It message -Il 90 -If 0 -Ii 0 -Iv 32 
N -t 0.035126 -n 3 -e 49.978420
N -t 0.035126 -n 7 -e 49.978420
N -t 0.035127 -n 1 -e 49.978420
N -t 0.035127 -n 8 -e 49.978420
s -t 0.087337168 -Hs 11 -Hd -1 -Ni 11 -Nx 475.01 -Ny 984.56 -Nz 0.00 -Ne 50.000000 -Nl RTR -Nw --- -Ma 0 -Md 0 -Ms 0 -Mt 0 -Is 11.255 -Id -1.255 -It message -Il 32 -If 0 -Ii 1 -Iv 32 
s -t 0.087732168 -Hs 11 -Hd -1 -Ni 11 -Nx 475.01 -Ny 984.56 -Nz 0.00 -Ne 50.000000 -Nl MAC -Nw --- -Ma 0 -Md ffffffff -Ms b -Mt 800 -Is 11.255 -Id -1.255 -It message -Il 90 -If 0 -Ii 1 -Iv 32 
N -t 0.087732 -n 2 -e 49.946857
N -t 0.087733 -n 4 -e 49.946856
N -t 0.087733 -n 1 -e 49.946784
N -t 0.087734 -n 5 -e 49.946856
N -t 0.087734 -n 7 -e 49.946784
N -t 0.087734 -n 8 -e 49.946784
r -t 0.088452440 -Hs 2 -Hd -1 -Ni 2 -Nx 549.00 -Ny 950.00 -Nz 0.00 -Ne 49.946857 -Nl MAC -Nw --- -Ma 0 -Md ffffffff -Ms b -Mt 800 -Is 11.255 -Id -1.255 -It message -Il 32 -If 0 -Ii 1 -Iv 32 
r -t 0.088452983 -Hs 4 -Hd -1 -Ni 4 -Nx 233.07 -Ny 948.56 -Nz 0.00 -Ne 49.946856 -Nl MAC -Nw --- -Ma 0 -Md ffffffff -Ms b -Mt 800 -Is 11.255 -Id -1.255 -It message -Il 32 -If 0 -Ii 1 -Iv 32 
r -t 0.088477440 -Hs 2 -Hd -1 -Ni 2 -Nx 549.00 -Ny 950.00 -Nz 0.00 -Ne 49.946857 -Nl RTR -Nw --- -Ma 0 -Md ffffffff -Ms b -Mt 800 -Is 11.255 -Id -1.255 -It message -Il 32 -If 0 -Ii 1 -Iv 32 
r -t 0.088477983 -Hs 4 -Hd -1 -Ni 4 -Nx 233.07 -Ny 948.56 -Nz 0.00 -Ne 49.946856 -Nl RTR -Nw --- -Ma 0 -Md ffffffff -Ms b -Mt 800 -Is 11.255 -Id -1.255 -It message -Il 32 -If 0 -Ii 1 -Iv 32 
s -t 0.178826222 -Hs 1 -Hd -1 -Ni 1 -Nx 482.13 -Ny 632.53 -Nz 0.00 -Ne 49.946784 -Nl RTR -Nw --- -Ma 0 -Md 0 -Ms 0 -Mt 0 -Is 1.255 -Id -1.255 -It message -Il 32 -If 0 -Ii 2 -Iv 32 
s -t 0.179141222 -Hs 1 -Hd -1 -Ni 1 -Nx 482.13 -Ny 632.52 -Nz 0.00 -Ne 49.946784 -Nl MAC -Nw --- -Ma 0 -Md ffffffff -Ms 1 -Mt 800 -Is 1.255 -Id -1.255 -It message -Il 90 -If 0 -Ii 2 -Iv 32 
N -t 0.179142 -n 5 -e 49.891939
N -t 0.179142 -n 7 -e 49.891867
N -t 0.179142 -n 8 -e 49.891867
N -t 0.179142 -n 6 -e 49.892011
N -t 0.179142 -n 3 -e 49.891939
N -t 0.179142 -n 2 -e 49.891939
N -t 0.179142 -n 11 -e 49.891795
N -t 0.179142 -n 10 -e 49.892011
N -t 0.179143 -n 4 -e 49.891938
N -t 0.179143 -n 9 -e 49.892010
N -t 0.179143 -n 0 -e 49.891794
r -t 0.179861738 -Hs 5 -Hd -1 -Ni 5 -Nx 350.88 -Ny 550.60 -Nz 0.00 -Ne 49.891939 -Nl MAC -Nw --- -Ma 0 -Md ffffffff -Ms 1 -Mt 800 -Is 1.255 -Id -1.255 -It message -Il 32 -If 0 -Ii 2 -Iv 32 
r -t 0.179861755 -Hs 7 -Hd -1 -Ni 7 -Nx 587.00 -Ny 512.00 -Nz 0.00 -Ne 49.891867 -Nl MAC -Nw --- -Ma 0 -Md ffffffff -Ms 1 -Mt 800 -Is 1.255 -Id -1.255 -It message -Il 32 -If 0 -Ii 2 -Iv 32 
r -t 0.179861781 -Hs 8 -Hd -1 -Ni 8 -Nx 453.35 -Ny 467.37 -Nz 0.00 -Ne 49.891867 -Nl MAC -Nw --- -Ma 0 -Md ffffffff -Ms 1 -Mt 800 -Is 1.255 -Id -1.255 -It message -Il 32 -If 0 -Ii 2 -Iv 32 
r -t 0.179886738 -Hs 5 -Hd -1 -Ni 5 -Nx 350.88 -Ny 550.60 -Nz 0.00 -Ne 49.891939 -Nl RTR -Nw --- -Ma 0 -Md ffffffff -Ms 1 -Mt 800 -Is 1.255 -Id -1.255 -It message -Il 32 -If 0 -Ii 2 -Iv 32 
r -t 0.179886755 -Hs 7 -Hd -1 -Ni 7 -Nx 587.00 -Ny 512.00 -Nz 0.00 -Ne 49.891867 -Nl RTR -Nw --- -Ma 0 -Md ffffffff -Ms 1 -Mt 800 -Is 1.255 -Id -1.255 -It message -Il 32 -If 0 -Ii 2 -Iv 32 
r -t 0.179886781 -Hs 8 -Hd -1 -Ni 8 -Nx 453.35 -Ny 467.37 -Nz 0.00 -Ne 49.891867 -Nl RTR -Nw --- -Ma 0 -Md ffffffff -Ms 1 -Mt 800 -Is 1.255 -Id -1.255 -It message -Il 32 -If 0 -Ii 2 -Iv 32 
s -t 0.335213882 -Hs 10 -Hd -1 -Ni 10 -Nx 388.00 -Ny 272.00 -Nz 0.00 -Ne 49.892011 -Nl RTR -Nw --- -Ma 0 -Md 0 -Ms 0 -Mt 0 -Is 10.255 -Id -1.255 -It message -Il 32 -If 0 -Ii 3 -Iv 32 
s -t 0.335688882 -Hs 10 -Hd -1 -Ni 10 -Nx 388.00 -Ny 272.00 -Nz 0.00 -Ne 49.892011 -Nl MAC -Nw --- -Ma 0 -Md ffffffff -Ms a -Mt 800 -Is 10.255 -Id -1.255 -It message -Il 90 -If 0 -Ii 3 -Iv 32 
N -t 0.335689 -n 6 -e 49.798010
N -t 0.335689 -n 9 -e 49.798010
N -t 0.335690 -n 8 -e 49.797866
N -t 0.335690 -n 5 -e 49.797938
N -t 0.335690 -n 7 -e 49.797866
N -t 0.335690 -n 1 -e 49.797722
N -t 0.335690 -n 3 -e 49.797938
r -t 0.336409215 -Hs 6 -Hd -1 -Ni 6 -Nx 432.00 -Ny 362.00 -Nz 0.00 -Ne 49.798010 -Nl MAC -Nw --- -Ma 0 -Md ffffffff -Ms a -Mt 800 -Is 10.255 -Id -1.255 -It message -Il 32 -If 0 -Ii 3 -Iv 32 
r -t 0.336409451 -Hs 9 -Hd -1 -Ni 9 -Nx 248.00 -Ny 174.00 -Nz 0.00 -Ne 49.798010 -Nl MAC -Nw --- -Ma 0 -Md ffffffff -Ms a -Mt 800 -Is 10.255 -Id -1.255 -It message -Il 32 -If 0 -Ii 3 -Iv 32 
r -t 0.336409556 -Hs 8 -Hd -1 -Ni 8 -Nx 451.04 -Ny 464.21 -Nz 0.00 -Ne 49.797866 -Nl MAC -Nw --- -Ma 0 -Md ffffffff -Ms a -Mt 800 -Is 10.255 -Id -1.255 -It message -Il 32 -If 0 -Ii 3 -Iv 32 
r -t 0.336434215 -Hs 6 -Hd -1 -Ni 6 -Nx 432.00 -Ny 362.00 -Nz 0.00 -Ne 49.798010 -Nl RTR -Nw --- -Ma 0 -Md ffffffff -Ms a -Mt 800 -Is 10.255 -Id -1.255 -It message -Il 32 -If 0 -Ii 3 -Iv 32 
r -t 0.336434451 -Hs 9 -Hd -1 -Ni 9 -Nx 248.00 -Ny 174.00 -Nz 0.00 -Ne 49.798010 -Nl RTR -Nw --- -Ma 0 -Md ffffffff -Ms a -Mt 800 -Is 10.255 -Id -1.255 -It message -Il 32 -If 0 -Ii 3 -Iv 32 
r -t 0.336434556 -Hs 8 -Hd -1 -Ni 8 -Nx 451.04 -Ny 464.21 -Nz 0.00 -Ne 49.797866 -Nl RTR -Nw --- -Ma 0 -Md ffffffff -Ms a -Mt 800 -Is 10.255 -Id -1.255 -It message -Il 32 -If 0 -Ii 3 -Iv 32 
s -t 0.471615760 -Hs 6 -Hd -1 -Ni 6 -Nx 432.00 -Ny 362.00 -Nz 0.00 -Ne 49.798010 -Nl RTR -Nw --- -Ma 0 -Md 0 -Ms 0 -Mt 0 -Is 6.255 -Id -1.255 -It message -Il 32 -If 0 -Ii 4 -Iv 32 
s -t 0.471990760 -Hs 6 -Hd -1 -Ni 6 -Nx 432.00 -Ny 362.00 -Nz 0.00 -Ne 49.798010 -Nl MAC -Nw --- -Ma 0 -Md ffffffff -Ms 6 -Mt 800 -Is 6.255 -Id -1.255 -It message -Il 90 -If 0 -Ii 4 -Iv 32 
N -t 0.471991 -n 10 -e 49.716013
N -t 0.471991 -n 8 -e 49.716013
N -t 0.471991 -n 5 -e 49.716085
N -t 0.471991 -n 7 -e 49.716013
N -t 0.471992 -n 9 -e 49.716157
N -t 0.471992 -n 1 -e 49.715869
N -t 0.471992 -n 3 -e 49.716085
r -t 0.472711094 -Hs 10 -Hd -1 -Ni 10 -Nx 388.00 -Ny 272.00 -Nz 0.00 -Ne 49.716013 -Nl MAC -Nw --- -Ma 0 -Md ffffffff -Ms 6 -Mt 800 -Is 6.255 -Id -1.255 -It message -Il 32 -If 0 -Ii 4 -Iv 32 
r -t 0.472711096 -Hs 8 -Hd -1 -Ni 8 -Nx 449.03 -Ny 461.46 -Nz 0.00 -Ne 49.716013 -Nl MAC -Nw --- -Ma 0 -Md ffffffff -Ms 6 -Mt 800 -Is 6.255 -Id -1.255 -It message -Il 32 -If 0 -Ii 4 -Iv 32 
r -t 0.472711430 -Hs 5 -Hd -1 -Ni 5 -Nx 345.79 -Ny 543.44 -Nz 0.00 -Ne 49.716085 -Nl MAC -Nw --- -Ma 0 -Md ffffffff -Ms 6 -Mt 800 -Is 6.255 -Id -1.255 -It message -Il 32 -If 0 -Ii 4 -Iv 32 
r -t 0.472711479 -Hs 7 -Hd -1 -Ni 7 -Nx 587.00 -Ny 512.00 -Nz 0.00 -Ne 49.716013 -Nl MAC -Nw --- -Ma 0 -Md ffffffff -Ms 6 -Mt 800 -Is 6.255 -Id -1.255 -It message -Il 32 -If 0 -Ii 4 -Iv 32 
r -t 0.472736094 -Hs 10 -Hd -1 -Ni 10 -Nx 388.00 -Ny 272.00 -Nz 0.00 -Ne 49.716013 -Nl RTR -Nw --- -Ma 0 -Md ffffffff -Ms 6 -Mt 800 -Is 6.255 -Id -1.255 -It message -Il 32 -If 0 -Ii 4 -Iv 32 
r -t 0.472736096 -Hs 8 -Hd -1 -Ni 8 -Nx 449.03 -Ny 461.46 -Nz 0.00 -Ne 49.716013 -Nl RTR -Nw --- -Ma 0 -Md ffffffff -Ms 6 -Mt 800 -Is 6.255 -Id -1.255 -It message -Il 32 -If 0 -Ii 4 -Iv 32 
r -t 0.472736430 -Hs 5 -Hd -1 -Ni 5 -Nx 345.79 -Ny 543.44 -Nz 0.00 -Ne 49.716085 -Nl RTR -Nw --- -Ma 0 -Md ffffffff -Ms 6 -Mt 800 -Is 6.255 -Id -1.255 -It message -Il 32 -If 0 -Ii 4 -Iv 32 
r -t 0.472736479 -Hs 7 -Hd -1 -Ni 7 -Nx 587.00 -Ny 512.00 -Nz 0.00 -Ne 49.716013 -Nl RTR -Nw --- -Ma 0 -Md ffffffff -Ms 6 -Mt 800 -Is 6.255 -Id -1.255 -It message -Il 32 -If 0 -Ii 4 -Iv 32 
M 0.50000 0 (995.00, 556.00, 0.00), (400.00, 300.00), 25.00
M 0.50000 3 (708.00, 473.00, 0.00), (480.00, 400.00), 26.00
M 0.50000 6 (432.00, 362.00, 0.00), (100.00, 600.00), 17.00
M 0.50000 7 (587.00, 512.00, 0.00), (700.00, 300.00), 25.00
M 0.50000 10 (388.00, 272.00, 0.00), (675.00, 400.00), 26.00
v 0.5 eval {set sim_annotation {Starting CBR0 node0 to node1}}
v 0.5 eval {set sim_annotation {Starting CBR1 node10 to node9}}
s -t 0.627015528 -Hs 4 -Hd -1 -Ni 4 -Nx 233.46 -Ny 945.90 -Nz 0.00 -Ne 49.891938 -Nl RTR -Nw --- -Ma 0 -Md 0 -Ms 0 -Mt 0 -Is 4.255 -Id -1.255 -It message -Il 32 -If 0 -Ii 6 -Iv 32 
s -t 0.627190528 -Hs 4 -Hd -1 -Ni 4 -Nx 233.46 -Ny 945.90 -Nz 0.00 -Ne 49.891938 -Nl MAC -Nw --- -Ma 0 -Md ffffffff -Ms 4 -Mt 800 -Is 4.255 -Id -1.255 -It message -Il 90 -If 0 -Ii 6 -Iv 32 
N -t 0.627191 -n 11 -e 49.622893
N -t 0.627192 -n 2 -e 49.623037
N -t 0.627192 -n 1 -e 49.622677
N -t 0.627192 -n 5 -e 49.622893
N -t 0.627192 -n 8 -e 49.622821
s -t 0.627207570 -Hs 8 -Hd -1 -Ni 8 -Nx 446.75 -Ny 458.34 -Nz 0.00 -Ne 49.622821 -Nl RTR -Nw --- -Ma 0 -Md 0 -Ms 0 -Mt 0 -Is 8.255 -Id -1.255 -It message -Il 32 -If 0 -Ii 5 -Iv 32 
r -t 0.627911342 -Hs 11 -Hd -1 -Ni 11 -Nx 475.08 -Ny 981.86 -Nz 0.00 -Ne 49.622893 -Nl MAC -Nw --- -Ma 0 -Md ffffffff -Ms 4 -Mt 800 -Is 4.255 -Id -1.255 -It message -Il 32 -If 0 -Ii 6 -Iv 32 
r -t 0.627936342 -Hs 11 -Hd -1 -Ni 11 -Nx 475.08 -Ny 981.86 -Nz 0.00 -Ne 49.622893 -Nl RTR -Nw --- -Ma 0 -Md ffffffff -Ms 4 -Mt 800 -Is 4.255 -Id -1.255 -It message -Il 32 -If 0 -Ii 6 -Iv 32 
s -t 0.628846302 -Hs 8 -Hd -1 -Ni 8 -Nx 446.73 -Ny 458.30 -Nz 0.00 -Ne 49.622821 -Nl MAC -Nw --- -Ma 0 -Md ffffffff -Ms 8 -Mt 800 -Is 8.255 -Id -1.255 -It message -Il 90 -If 0 -Ii 5 -Iv 32 
N -t 0.628847 -n 6 -e 49.621828
N -t 0.628847 -n 5 -e 49.621828
N -t 0.628847 -n 7 -e 49.621828
N -t 0.628847 -n 1 -e 49.621612
N -t 0.628847 -n 10 -e 49.621828
N -t 0.628847 -n 3 -e 49.621900
N -t 0.628847 -n 9 -e 49.621972
N -t 0.628848 -n 2 -e 49.621971
N -t 0.628848 -n 11 -e 49.621827
N -t 0.628848 -n 4 -e 49.621827
r -t 0.629566623 -Hs 6 -Hd -1 -Ni 6 -Nx 430.21 -Ny 363.28 -Nz 0.00 -Ne 49.621828 -Nl MAC -Nw --- -Ma 0 -Md ffffffff -Ms 8 -Mt 800 -Is 8.255 -Id -1.255 -It message -Il 32 -If 0 -Ii 5 -Iv 32 
r -t 0.629566741 -Hs 5 -Hd -1 -Ni 5 -Nx 343.07 -Ny 539.60 -Nz 0.00 -Ne 49.621828 -Nl MAC -Nw --- -Ma 0 -Md ffffffff -Ms 8 -Mt 800 -Is 8.255 -Id -1.255 -It message -Il 32 -If 0 -Ii 5 -Iv 32 
r -t 0.629566804 -Hs 7 -Hd -1 -Ni 7 -Nx 588.52 -Ny 509.14 -Nz 0.00 -Ne 49.621828 -Nl MAC -Nw --- -Ma 0 -Md ffffffff -Ms 8 -Mt 800 -Is 8.255 -Id -1.255 -It message -Il 32 -If 0 -Ii 5 -Iv 32 
r -t 0.629566858 -Hs 1 -Hd -1 -Ni 1 -Nx 482.47 -Ny 621.27 -Nz 0.00 -Ne 49.621612 -Nl MAC -Nw --- -Ma 0 -Md ffffffff -Ms 8 -Mt 800 -Is 8.255 -Id -1.255 -It message -Il 32 -If 0 -Ii 5 -Iv 32 
r -t 0.629566946 -Hs 10 -Hd -1 -Ni 10 -Nx 391.08 -Ny 273.37 -Nz 0.00 -Ne 49.621828 -Nl MAC -Nw --- -Ma 0 -Md ffffffff -Ms 8 -Mt 800 -Is 8.255 -Id -1.255 -It message -Il 32 -If 0 -Ii 5 -Iv 32 
r -t 0.629591623 -Hs 6 -Hd -1 -Ni 6 -Nx 430.21 -Ny 363.28 -Nz 0.00 -Ne 49.621828 -Nl RTR -Nw --- -Ma 0 -Md ffffffff -Ms 8 -Mt 800 -Is 8.255 -Id -1.255 -It message -Il 32 -If 0 -Ii 5 -Iv 32 
r -t 0.629591741 -Hs 5 -Hd -1 -Ni 5 -Nx 343.07 -Ny 539.60 -Nz 0.00 -Ne 49.621828 -Nl RTR -Nw --- -Ma 0 -Md ffffffff -Ms 8 -Mt 800 -Is 8.255 -Id -1.255 -It message -Il 32 -If 0 -Ii 5 -Iv 32 
r -t 0.629591804 -Hs 7 -Hd -1 -Ni 7 -Nx 588.52 -Ny 509.14 -Nz 0.00 -Ne 49.621828 -Nl RTR -Nw --- -Ma 0 -Md ffffffff -Ms 8 -Mt 800 -Is 8.255 -Id -1.255 -It message -Il 32 -If 0 -Ii 5 -Iv 32 
r -t 0.629591858 -Hs 1 -Hd -1 -Ni 1 -Nx 482.47 -Ny 621.27 -Nz 0.00 -Ne 49.621612 -Nl RTR -Nw --- -Ma 0 -Md ffffffff -Ms 8 -Mt 800 -Is 8.255 -Id -1.255 -It message -Il 32 -If 0 -Ii 5 -Iv 32 
r -t 0.629591946 -Hs 10 -Hd -1 -Ni 10 -Nx 391.08 -Ny 273.37 -Nz 0.00 -Ne 49.621828 -Nl RTR -Nw --- -Ma 0 -Md ffffffff -Ms 8 -Mt 800 -Is 8.255 -Id -1.255 -It message -Il 32 -If 0 -Ii 5 -Iv 32 
M 0.70000 2 (549.00, 950.00, 0.00), (500.00, 100.00), 20.00
M 0.70000 9 (248.00, 174.00, 0.00), (656.00, 600.00), 20.00
s -t 0.883467077 -Hs 2 -Hd -1 -Ni 2 -Nx 548.79 -Ny 946.34 -Nz 0.00 -Ne 49.621971 -Nl RTR -Nw --- -Ma 0 -Md 0 -Ms 0 -Mt 0 -Is 2.255 -Id -1.255 -It message -Il 32 -If 0 -Ii 7 -Iv 32 
s -t 0.883662077 -Hs 2 -Hd -1 -Ni 2 -Nx 548.79 -Ny 946.33 -Nz 0.00 -Ne 49.621971 -Nl MAC -Nw --- -Ma 0 -Md ffffffff -Ms 2 -Mt 800 -Is 2.255 -Id -1.255 -It message -Il 90 -If 0 -Ii 7 -Iv 32 
N -t 0.883662 -n 11 -e 49.468867
N -t 0.883663 -n 4 -e 49.468866
N -t 0.883663 -n 1 -e 49.468650
N -t 0.883664 -n 7 -e 49.468866
N -t 0.883664 -n 5 -e 49.468866
N -t 0.883664 -n 3 -e 49.468938
N -t 0.883664 -n 8 -e 49.468650
r -t 0.884382348 -Hs 11 -Hd -1 -Ni 11 -Nx 475.12 -Ny 980.58 -Nz 0.00 -Ne 49.468867 -Nl MAC -Nw --- -Ma 0 -Md ffffffff -Ms 2 -Mt 800 -Is 2.255 -Id -1.255 -It message -Il 32 -If 0 -Ii 7 -Iv 32 
r -t 0.884407348 -Hs 11 -Hd -1 -Ni 11 -Nx 475.12 -Ny 980.58 -Nz 0.00 -Ne 49.468867 -Nl RTR -Nw --- -Ma 0 -Md ffffffff -Ms 2 -Mt 800 -Is 2.255 -Id -1.255 -It message -Il 32 -If 0 -Ii 7 -Iv 32 
s -t 1.000000000 -Hs 0 -Hd -2 -Ni 0 -Nx 983.52 -Ny 551.06 -Nz 0.00 -Ne 49.891794 -Nl AGT -Nw --- -Ma 0 -Md 0 -Ms 0 -Mt 0 -Is 0.0 -Id 1.0 -It tcp -Il 40 -If 0 -Ii 8 -Iv 32 -Pn tcp -Ps 0 -Pa 0 -Pf 0 -Po 0 
r -t 1.000000000 -Hs 0 -Hd -2 -Ni 0 -Nx 983.52 -Ny 551.06 -Nz 0.00 -Ne 49.891794 -Nl RTR -Nw --- -Ma 0 -Md 0 -Ms 0 -Mt 0 -Is 0.0 -Id 1.0 -It tcp -Il 40 -If 0 -Ii 8 -Iv 32 -Pn tcp -Ps 0 -Pa 0 -Pf 0 -Po 0 
s -t 1.000000000 -Hs 10 -Hd -2 -Ni 10 -Nx 399.87 -Ny 277.30 -Nz 0.00 -Ne 49.621828 -Nl AGT -Nw --- -Ma 0 -Md 0 -Ms 0 -Mt 0 -Is 10.0 -Id 9.0 -It tcp -Il 40 -If 0 -Ii 9 -Iv 32 -Pn tcp -Ps 0 -Pa 0 -Pf 0 -Po 0 
r -t 1.000000000 -Hs 10 -Hd -2 -Ni 10 -Nx 399.87 -Ny 277.30 -Nz 0.00 -Ne 49.621828 -Nl RTR -Nw --- -Ma 0 -Md 0 -Ms 0 -Mt 0 -Is 10.0 -Id 9.0 -It tcp -Il 40 -If 0 -Ii 9 -Iv 32 -Pn tcp -Ps 0 -Pa 0 -Pf 0 -Po 0 
s -t 1.281900580 -Hs 7 -Hd -1 -Ni 7 -Nx 596.19 -Ny 494.75 -Nz 0.00 -Ne 49.468866 -Nl RTR -Nw --- -Ma 0 -Md 0 -Ms 0 -Mt 0 -Is 7.255 -Id -1.255 -It message -Il 32 -If 0 -Ii 10 -Iv 32 
s -t 1.282495580 -Hs 7 -Hd -1 -Ni 7 -Nx 596.20 -Ny 494.74 -Nz 0.00 -Ne 49.468866 -Nl MAC -Nw --- -Ma 0 -Md ffffffff -Ms 7 -Mt 800 -Is 7.255 -Id -1.255 -It message -Il 90 -If 0 -Ii 10 -Iv 32 
N -t 1.282496 -n 3 -e 49.229566
N -t 1.282496 -n 1 -e 49.229278
N -t 1.282496 -n 8 -e 49.229278
N -t 1.282496 -n 6 -e 49.229566
N -t 1.282496 -n 5 -e 49.229494
N -t 1.282497 -n 10 -e 49.229566
N -t 1.282497 -n 0 -e 49.229710
N -t 1.282497 -n 2 -e 49.229494
N -t 1.282497 -n 9 -e 49.229710
N -t 1.282497 -n 11 -e 49.229494
r -t 1.283215902 -Hs 3 -Hd -1 -Ni 3 -Nx 688.61 -Ny 466.79 -Nz 0.00 -Ne 49.229566 -Nl MAC -Nw --- -Ma 0 -Md ffffffff -Ms 7 -Mt 800 -Is 7.255 -Id -1.255 -It message -Il 32 -If 0 -Ii 10 -Iv 32 
r -t 1.283216107 -Hs 1 -Hd -1 -Ni 1 -Nx 482.95 -Ny 604.93 -Nz 0.00 -Ne 49.229278 -Nl MAC -Nw --- -Ma 0 -Md ffffffff -Ms 7 -Mt 800 -Is 7.255 -Id -1.255 -It message -Il 32 -If 0 -Ii 10 -Iv 32 
r -t 1.283216136 -Hs 8 -Hd -1 -Ni 8 -Nx 437.08 -Ny 445.09 -Nz 0.00 -Ne 49.229278 -Nl MAC -Nw --- -Ma 0 -Md ffffffff -Ms 7 -Mt 800 -Is 7.255 -Id -1.255 -It message -Il 32 -If 0 -Ii 10 -Iv 32 
r -t 1.283216297 -Hs 6 -Hd -1 -Ni 6 -Nx 421.18 -Ny 369.76 -Nz 0.00 -Ne 49.229566 -Nl MAC -Nw --- -Ma 0 -Md ffffffff -Ms 7 -Mt 800 -Is 7.255 -Id -1.255 -It message -Il 32 -If 0 -Ii 10 -Iv 32 
r -t 1.283240902 -Hs 3 -Hd -1 -Ni 3 -Nx 688.61 -Ny 466.79 -Nz 0.00 -Ne 49.229566 -Nl RTR -Nw --- -Ma 0 -Md ffffffff -Ms 7 -Mt 800 -Is 7.255 -Id -1.255 -It message -Il 32 -If 0 -Ii 10 -Iv 32 
r -t 1.283241107 -Hs 1 -Hd -1 -Ni 1 -Nx 482.95 -Ny 604.93 -Nz 0.00 -Ne 49.229278 -Nl RTR -Nw --- -Ma 0 -Md ffffffff -Ms 7 -Mt 800 -Is 7.255 -Id -1.255 -It message -Il 32 -If 0 -Ii 10 -Iv 32 
r -t 1.283241136 -Hs 8 -Hd -1 -Ni 8 -Nx 437.08 -Ny 445.09 -Nz 0.00 -Ne 49.229278 -Nl RTR -Nw --- -Ma 0 -Md ffffffff -Ms 7 -Mt 800 -Is 7.255 -Id -1.255 -It message -Il 32 -If 0 -Ii 10 -Iv 32 
r -t 1.283241297 -Hs 6 -Hd -1 -Ni 6 -Nx 421.18 -Ny 369.76 -Nz 0.00 -Ne 49.229566 -Nl RTR -Nw --- -Ma 0 -Md ffffffff -Ms 7 -Mt 800 -Is 7.255 -Id -1.255 -It message -Il 32 -If 0 -Ii 10 -Iv 32 
s -t 1.601442236 -Hs 3 -Hd -1 -Ni 3 -Nx 680.73 -Ny 464.27 -Nz 0.00 -Ne 49.229566 -Nl RTR -Nw --- -Ma 0 -Md 0 -Ms 0 -Mt 0 -Is 3.255 -Id -1.255 -It message -Il 32 -If 0 -Ii 11 -Iv 32 
s -t 1.601817236 -Hs 3 -Hd -1 -Ni 3 -Nx 680.72 -Ny 464.26 -Nz 0.00 -Ne 49.229566 -Nl MAC -Nw --- -Ma 0 -Md ffffffff -Ms 3 -Mt 800 -Is 3.255 -Id -1.255 -It message -Il 90 -If 0 -Ii 11 -Iv 32 
N -t 1.601818 -n 7 -e 49.037685
N -t 1.601818 -n 1 -e 49.037613
N -t 1.601818 -n 8 -e 49.037613
N -t 1.601818 -n 6 -e 49.037901
N -t 1.601818 -n 0 -e 49.038045
N -t 1.601818 -n 10 -e 49.037901
N -t 1.601818 -n 5 -e 49.037829
N -t 1.601819 -n 2 -e 49.037829
N -t 1.601819 -n 9 -e 49.038045
r -t 1.602537516 -Hs 7 -Hd -1 -Ni 7 -Nx 599.97 -Ny 487.68 -Nz 0.00 -Ne 49.037685 -Nl MAC -Nw --- -Ma 0 -Md ffffffff -Ms 3 -Mt 800 -Is 3.255 -Id -1.255 -It message -Il 32 -If 0 -Ii 11 -Iv 32 
r -t 1.602538029 -Hs 1 -Hd -1 -Ni 1 -Nx 483.19 -Ny 596.95 -Nz 0.00 -Ne 49.037613 -Nl MAC -Nw --- -Ma 0 -Md ffffffff -Ms 3 -Mt 800 -Is 3.255 -Id -1.255 -It message -Il 32 -If 0 -Ii 11 -Iv 32 
r -t 1.602538068 -Hs 8 -Hd -1 -Ni 8 -Nx 432.37 -Ny 438.64 -Nz 0.00 -Ne 49.037613 -Nl MAC -Nw --- -Ma 0 -Md ffffffff -Ms 3 -Mt 800 -Is 3.255 -Id -1.255 -It message -Il 32 -If 0 -Ii 11 -Iv 32 
r -t 1.602562516 -Hs 7 -Hd -1 -Ni 7 -Nx 599.97 -Ny 487.68 -Nz 0.00 -Ne 49.037685 -Nl RTR -Nw --- -Ma 0 -Md ffffffff -Ms 3 -Mt 800 -Is 3.255 -Id -1.255 -It message -Il 32 -If 0 -Ii 11 -Iv 32 
r -t 1.602563029 -Hs 1 -Hd -1 -Ni 1 -Nx 483.19 -Ny 596.95 -Nz 0.00 -Ne 49.037613 -Nl RTR -Nw --- -Ma 0 -Md ffffffff -Ms 3 -Mt 800 -Is 3.255 -Id -1.255 -It message -Il 32 -If 0 -Ii 11 -Iv 32 
r -t 1.602563068 -Hs 8 -Hd -1 -Ni 8 -Nx 432.37 -Ny 438.64 -Nz 0.00 -Ne 49.037613 -Nl RTR -Nw --- -Ma 0 -Md ffffffff -Ms 3 -Mt 800 -Is 3.255 -Id -1.255 -It message -Il 32 -If 0 -Ii 11 -Iv 32 
s -t 1.642182869 -Hs 5 -Hd -1 -Ni 5 -Nx 325.48 -Ny 514.83 -Nz 0.00 -Ne 49.037829 -Nl RTR -Nw --- -Ma 0 -Md 0 -Ms 0 -Mt 0 -Is 5.255 -Id -1.255 -It message -Il 32 -If 0 -Ii 12 -Iv 32 
s -t 1.642697869 -Hs 5 -Hd -1 -Ni 5 -Nx 325.47 -Ny 514.81 -Nz 0.00 -Ne 49.037829 -Nl MAC -Nw --- -Ma 0 -Md ffffffff -Ms 5 -Mt 800 -Is 5.255 -Id -1.255 -It message -Il 90 -If 0 -Ii 12 -Iv 32 
N -t 1.642698 -n 8 -e 49.013013
N -t 1.642698 -n 6 -e 49.013301
N -t 1.642698 -n 1 -e 49.013013
N -t 1.642699 -n 10 -e 49.013301
N -t 1.642699 -n 7 -e 49.013085
N -t 1.642699 -n 9 -e 49.013445
N -t 1.642699 -n 3 -e 49.013157
N -t 1.642699 -n 4 -e 49.013372
N -t 1.642699 -n 2 -e 49.013228
N -t 1.642699 -n 11 -e 49.013300
r -t 1.643418307 -Hs 8 -Hd -1 -Ni 8 -Nx 431.77 -Ny 437.82 -Nz 0.00 -Ne 49.013013 -Nl MAC -Nw --- -Ma 0 -Md ffffffff -Ms 5 -Mt 800 -Is 5.255 -Id -1.255 -It message -Il 32 -If 0 -Ii 12 -Iv 32 
r -t 1.643418429 -Hs 6 -Hd -1 -Ni 6 -Nx 416.20 -Ny 373.33 -Nz 0.00 -Ne 49.013301 -Nl MAC -Nw --- -Ma 0 -Md ffffffff -Ms 5 -Mt 800 -Is 5.255 -Id -1.255 -It message -Il 32 -If 0 -Ii 12 -Iv 32 
r -t 1.643418460 -Hs 1 -Hd -1 -Ni 1 -Nx 483.22 -Ny 595.93 -Nz 0.00 -Ne 49.013013 -Nl MAC -Nw --- -Ma 0 -Md ffffffff -Ms 5 -Mt 800 -Is 5.255 -Id -1.255 -It message -Il 32 -If 0 -Ii 12 -Iv 32 
r -t 1.643418694 -Hs 10 -Hd -1 -Ni 10 -Nx 415.15 -Ny 284.11 -Nz 0.00 -Ne 49.013301 -Nl MAC -Nw --- -Ma 0 -Md ffffffff -Ms 5 -Mt 800 -Is 5.255 -Id -1.255 -It message -Il 32 -If 0 -Ii 12 -Iv 32 
r -t 1.643443307 -Hs 8 -Hd -1 -Ni 8 -Nx 431.77 -Ny 437.82 -Nz 0.00 -Ne 49.013013 -Nl RTR -Nw --- -Ma 0 -Md ffffffff -Ms 5 -Mt 800 -Is 5.255 -Id -1.255 -It message -Il 32 -If 0 -Ii 12 -Iv 32 
r -t 1.643443429 -Hs 6 -Hd -1 -Ni 6 -Nx 416.20 -Ny 373.33 -Nz 0.00 -Ne 49.013301 -Nl RTR -Nw --- -Ma 0 -Md ffffffff -Ms 5 -Mt 800 -Is 5.255 -Id -1.255 -It message -Il 32 -If 0 -Ii 12 -Iv 32 
r -t 1.643443460 -Hs 1 -Hd -1 -Ni 1 -Nx 483.22 -Ny 595.93 -Nz 0.00 -Ne 49.013013 -Nl RTR -Nw --- -Ma 0 -Md ffffffff -Ms 5 -Mt 800 -Is 5.255 -Id -1.255 -It message -Il 32 -If 0 -Ii 12 -Iv 32 
r -t 1.643443694 -Hs 10 -Hd -1 -Ni 10 -Nx 415.15 -Ny 284.11 -Nz 0.00 -Ne 49.013301 -Nl RTR -Nw --- -Ma 0 -Md ffffffff -Ms 5 -Mt 800 -Is 5.255 -Id -1.255 -It message -Il 32 -If 0 -Ii 12 -Iv 32 
s -t 1.680392721 -Hs 9 -Hd -1 -Ni 9 -Nx 261.56 -Ny 188.16 -Nz 0.00 -Ne 49.013445 -Nl RTR -Nw --- -Ma 0 -Md 0 -Ms 0 -Mt 0 -Is 9.255 -Id -1.255 -It message -Il 32 -If 0 -Ii 13 -Iv 32 
s -t 1.680507721 -Hs 9 -Hd -1 -Ni 9 -Nx 261.56 -Ny 188.16 -Nz 0.00 -Ne 49.013445 -Nl MAC -Nw --- -Ma 0 -Md ffffffff -Ms 9 -Mt 800 -Is 9.255 -Id -1.255 -It message -Il 90 -If 0 -Ii 13 -Iv 32 
N -t 1.680508 -n 10 -e 48.990543
N -t 1.680509 -n 6 -e 48.990543
N -t 1.680509 -n 8 -e 48.990255
N -t 1.680509 -n 5 -e 48.990327
N -t 1.680509 -n 7 -e 48.990326
N -t 1.680509 -n 1 -e 48.990254
N -t 1.680509 -n 3 -e 48.990398
r -t 1.681228328 -Hs 10 -Hd -1 -Ni 10 -Nx 416.05 -Ny 284.51 -Nz 0.00 -Ne 48.990543 -Nl MAC -Nw --- -Ma 0 -Md ffffffff -Ms 9 -Mt 800 -Is 9.255 -Id -1.255 -It message -Il 32 -If 0 -Ii 13 -Iv 32 
r -t 1.681228525 -Hs 6 -Hd -1 -Ni 6 -Nx 415.68 -Ny 373.70 -Nz 0.00 -Ne 48.990543 -Nl MAC -Nw --- -Ma 0 -Md ffffffff -Ms 9 -Mt 800 -Is 9.255 -Id -1.255 -It message -Il 32 -If 0 -Ii 13 -Iv 32 
r -t 1.681253328 -Hs 10 -Hd -1 -Ni 10 -Nx 416.05 -Ny 284.51 -Nz 0.00 -Ne 48.990543 -Nl RTR -Nw --- -Ma 0 -Md ffffffff -Ms 9 -Mt 800 -Is 9.255 -Id -1.255 -It message -Il 32 -If 0 -Ii 13 -Iv 32 
s -t 1.681253328 -Hs 10 -Hd 9 -Ni 10 -Nx 416.05 -Ny 284.51 -Nz 0.00 -Ne 48.990543 -Nl RTR -Nw --- -Ma 0 -Md 0 -Ms 0 -Mt 0 -Is 10.0 -Id 9.0 -It tcp -Il 80 -If 0 -Ii 9 -Iv 32 -Pn tcp -Ps 0 -Pa 0 -Pf 0 -Po 0 
r -t 1.681253525 -Hs 6 -Hd -1 -Ni 6 -Nx 415.68 -Ny 373.70 -Nz 0.00 -Ne 48.990543 -Nl RTR -Nw --- -Ma 0 -Md ffffffff -Ms 9 -Mt 800 -Is 9.255 -Id -1.255 -It message -Il 32 -If 0 -Ii 13 -Iv 32 
s -t 1.681648328 -Hs 10 -Hd -2 -Ni 10 -Nx 416.06 -Ny 284.51 -Nz 0.00 -Ne 48.990543 -Nl MAC -Nw --- -Ma 0 -Md ffffffff -Ms a -Mt 806 -P arp -Po REQUEST -Pms 10 -Ps 10 -Pmd 0 -Pd 9 
N -t 1.681649 -n 6 -e 48.989809
N -t 1.681649 -n 8 -e 48.989521
N -t 1.681649 -n 9 -e 48.989809
N -t 1.681649 -n 5 -e 48.989593
N -t 1.681649 -n 7 -e 48.989593
N -t 1.681649 -n 1 -e 48.989521
N -t 1.681649 -n 3 -e 48.989665
r -t 1.682336626 -Hs 6 -Hd -2 -Ni 6 -Nx 415.66 -Ny 373.71 -Nz 0.00 -Ne 48.989809 -Nl MAC -Nw --- -Ma 0 -Md ffffffff -Ms a -Mt 806 -P arp -Po REQUEST -Pms 10 -Ps 10 -Pmd 0 -Pd 9 
r -t 1.682336839 -Hs 8 -Hd -2 -Ni 8 -Nx 431.20 -Ny 437.03 -Nz 0.00 -Ne 48.989521 -Nl MAC -Nw --- -Ma 0 -Md ffffffff -Ms a -Mt 806 -P arp -Po REQUEST -Pms 10 -Ps 10 -Pmd 0 -Pd 9 
r -t 1.682336935 -Hs 9 -Hd -2 -Ni 9 -Nx 261.59 -Ny 188.19 -Nz 0.00 -Ne 48.989809 -Nl MAC -Nw --- -Ma 0 -Md ffffffff -Ms a -Mt 806 -P arp -Po REQUEST -Pms 10 -Ps 10 -Pmd 0 -Pd 9 
r -t 1.682337151 -Hs 5 -Hd -2 -Ni 5 -Nx 324.79 -Ny 513.84 -Nz 0.00 -Ne 48.989593 -Nl MAC -Nw --- -Ma 0 -Md ffffffff -Ms a -Mt 806 -P arp -Po REQUEST -Pms 10 -Ps 10 -Pmd 0 -Pd 9 
s -t 1.682546935 -Hs 9 -Hd -2 -Ni 9 -Nx 261.59 -Ny 188.19 -Nz 0.00 -Ne 48.989809 -Nl MAC -Nw --- -Ma 52e -Md a -Ms 9 -Mt 0 
N -t 1.682548 -n 10 -e 48.989299
N -t 1.682548 -n 6 -e 48.989436
N -t 1.682548 -n 8 -e 48.989148
N -t 1.682548 -n 5 -e 48.989220
N -t 1.682548 -n 7 -e 48.989220
N -t 1.682548 -n 1 -e 48.989148
N -t 1.682549 -n 3 -e 48.989292
r -t 1.682899542 -Hs 10 -Hd -2 -Ni 10 -Nx 416.09 -Ny 284.53 -Nz 0.00 -Ne 48.989299 -Nl MAC -Nw --- -Ma 52e -Md a -Ms 9 -Mt 0 
s -t 1.682909542 -Hs 10 -Hd -2 -Ni 10 -Nx 416.09 -Ny 284.53 -Nz 0.00 -Ne 48.989299 -Nl MAC -Nw --- -Ma 3f4 -Md 9 -Ms 0 -Mt 0 
N -t 1.682910 -n 6 -e 48.989217
N -t 1.682910 -n 8 -e 48.988929
N -t 1.682910 -n 9 -e 48.989147
N -t 1.682910 -n 5 -e 48.989001
N -t 1.682910 -n 7 -e 48.989001
N -t 1.682911 -n 1 -e 48.988929
N -t 1.682911 -n 3 -e 48.989073
r -t 1.683214149 -Hs 9 -Hd -2 -Ni 9 -Nx 261.60 -Ny 188.20 -Nz 0.00 -Ne 48.989147 -Nl MAC -Nw --- -Ma 3f4 -Md 9 -Ms 0 -Mt 0 
s -t 1.683224149 -Hs 9 -Hd -2 -Ni 9 -Nx 261.60 -Ny 188.20 -Nz 0.00 -Ne 48.989147 -Nl MAC -Nw --- -Ma 13a -Md a -Ms 9 -Mt 806 -P arp -Po REPLY -Pms 9 -Ps 9 -Pmd 10 -Pd 10 
N -t 1.683225 -n 10 -e 48.988531
N -t 1.683225 -n 6 -e 48.988729
N -t 1.683225 -n 8 -e 48.988441
N -t 1.683225 -n 5 -e 48.988513
N -t 1.683226 -n 7 -e 48.988513
N -t 1.683226 -n 1 -e 48.988441
N -t 1.683226 -n 3 -e 48.988585
r -t 1.683912756 -Hs 10 -Hd -2 -Ni 10 -Nx 416.11 -Ny 284.54 -Nz 0.00 -Ne 48.988531 -Nl MAC -Nw --- -Ma 13a -Md a -Ms 9 -Mt 806 -P arp -Po REPLY -Pms 9 -Ps 9 -Pmd 10 -Pd 10 
s -t 1.683922756 -Hs 10 -Hd -2 -Ni 10 -Nx 416.11 -Ny 284.54 -Nz 0.00 -Ne 48.988531 -Nl MAC -Nw --- -Ma 0 -Md 9 -Ms 0 -Mt 0 
N -t 1.683923 -n 6 -e 48.988510
N -t 1.683923 -n 8 -e 48.988222
N -t 1.683923 -n 9 -e 48.988302
N -t 1.683924 -n 5 -e 48.988294
N -t 1.683924 -n 7 -e 48.988294
N -t 1.683924 -n 1 -e 48.988222
N -t 1.683924 -n 3 -e 48.988366
r -t 1.684227363 -Hs 9 -Hd -2 -Ni 9 -Nx 261.62 -Ny 188.22 -Nz 0.00 -Ne 48.988302 -Nl MAC -Nw --- -Ma 0 -Md 9 -Ms 0 -Mt 0 
s -t 1.684656756 -Hs 10 -Hd -2 -Ni 10 -Nx 416.13 -Ny 284.55 -Nz 0.00 -Ne 48.988251 -Nl MAC -Nw --- -Ma 6ce -Md 9 -Ms a -Mt 0 
N -t 1.684657 -n 6 -e 48.988006
N -t 1.684657 -n 8 -e 48.987718
N -t 1.684657 -n 9 -e 48.987798
N -t 1.684658 -n 5 -e 48.987789
N -t 1.684658 -n 7 -e 48.987789
N -t 1.684658 -n 1 -e 48.987717
N -t 1.684658 -n 3 -e 48.987861
r -t 1.685009363 -Hs 9 -Hd -2 -Ni 9 -Nx 261.63 -Ny 188.23 -Nz 0.00 -Ne 48.987798 -Nl MAC -Nw --- -Ma 6ce -Md 9 -Ms a -Mt 0 
s -t 1.685019363 -Hs 9 -Hd -2 -Ni 9 -Nx 261.63 -Ny 188.23 -Nz 0.00 -Ne 48.987798 -Nl MAC -Nw --- -Ma 594 -Md a -Ms 0 -Mt 0 
N -t 1.685020 -n 10 -e 48.987457
N -t 1.685020 -n 6 -e 48.987786
N -t 1.685020 -n 8 -e 48.987498
N -t 1.685020 -n 5 -e 48.987570
N -t 1.685021 -n 7 -e 48.987570
N -t 1.685021 -n 1 -e 48.987498
N -t 1.685021 -n 3 -e 48.987642
r -t 1.685323970 -Hs 10 -Hd -2 -Ni 10 -Nx 416.15 -Ny 284.55 -Nz 0.00 -Ne 48.987457 -Nl MAC -Nw --- -Ma 594 -Md a -Ms 0 -Mt 0 
s -t 1.685333970 -Hs 10 -Hd 9 -Ni 10 -Nx 416.15 -Ny 284.55 -Nz 0.00 -Ne 48.987457 -Nl MAC -Nw --- -Ma 13a -Md 9 -Ms a -Mt 800 -Is 10.0 -Id 9.0 -It tcp -Il 138 -If 0 -Ii 9 -Iv 32 -Pn tcp -Ps 0 -Pa 0 -Pf 0 -Po 0 
N -t 1.685334 -n 6 -e 48.987007
N -t 1.685334 -n 8 -e 48.986719
N -t 1.685335 -n 9 -e 48.986738
N -t 1.685335 -n 5 -e 48.986791
N -t 1.685335 -n 7 -e 48.986791
N -t 1.685335 -n 1 -e 48.986719
N -t 1.685335 -n 3 -e 48.986863
r -t 1.686438576 -Hs 9 -Hd 9 -Ni 9 -Nx 261.65 -Ny 188.25 -Nz 0.00 -Ne 48.986738 -Nl MAC -Nw --- -Ma 13a -Md 9 -Ms a -Mt 800 -Is 10.0 -Id 9.0 -It tcp -Il 80 -If 0 -Ii 9 -Iv 32 -Pn tcp -Ps 0 -Pa 0 -Pf 1 -Po 0 
s -t 1.686448576 -Hs 9 -Hd -2 -Ni 9 -Nx 261.65 -Ny 188.25 -Nz 0.00 -Ne 48.986738 -Nl MAC -Nw --- -Ma 0 -Md a -Ms 0 -Mt 0 
N -t 1.686449 -n 10 -e 48.986238
N -t 1.686449 -n 6 -e 48.986788
N -t 1.686450 -n 8 -e 48.986500
N -t 1.686450 -n 5 -e 48.986572
N -t 1.686450 -n 7 -e 48.986572
N -t 1.686450 -n 1 -e 48.986500
N -t 1.686450 -n 3 -e 48.986643
r -t 1.686463576 -Hs 9 -Hd 9 -Ni 9 -Nx 261.65 -Ny 188.25 -Nz 0.00 -Ne 48.986459 -Nl AGT -Nw --- -Ma 13a -Md 9 -Ms a -Mt 800 -Is 10.0 -Id 9.0 -It tcp -Il 80 -If 0 -Ii 9 -Iv 32 -Pn tcp -Ps 0 -Pa 0 -Pf 1 -Po 0 
s -t 1.686463576 -Hs 9 -Hd -2 -Ni 9 -Nx 261.65 -Ny 188.25 -Nz 0.00 -Ne 48.986459 -Nl AGT -Nw --- -Ma 0 -Md 0 -Ms 0 -Mt 0 -Is 9.0 -Id 10.0 -It ack -Il 40 -If 0 -Ii 14 -Iv 32 -Pn tcp -Ps 0 -Pa 0 -Pf 0 -Po 0 
r -t 1.686463576 -Hs 9 -Hd -2 -Ni 9 -Nx 261.65 -Ny 188.25 -Nz 0.00 -Ne 48.986459 -Nl RTR -Nw --- -Ma 0 -Md 0 -Ms 0 -Mt 0 -Is 9.0 -Id 10.0 -It ack -Il 40 -If 0 -Ii 14 -Iv 32 -Pn tcp -Ps 0 -Pa 0 -Pf 0 -Po 0 
s -t 1.686463576 -Hs 9 -Hd 10 -Ni 9 -Nx 261.65 -Ny 188.25 -Nz 0.00 -Ne 48.986459 -Nl RTR -Nw --- -Ma 0 -Md 0 -Ms 0 -Mt 0 -Is 9.0 -Id 10.0 -It ack -Il 60 -If 0 -Ii 14 -Iv 32 -Pn tcp -Ps 0 -Pa 0 -Pf 0 -Po 0 
r -t 1.686753183 -Hs 10 -Hd -2 -Ni 10 -Nx 416.18 -Ny 284.57 -Nz 0.00 -Ne 48.986238 -Nl MAC -Nw --- -Ma 0 -Md a -Ms 0 -Mt 0 
s -t 1.687002576 -Hs 9 -Hd -2 -Ni 9 -Nx 261.65 -Ny 188.26 -Nz 0.00 -Ne 48.986459 -Nl MAC -Nw --- -Ma 62e -Md a -Ms 9 -Mt 0 
N -t 1.687003 -n 10 -e 48.985841
N -t 1.687003 -n 6 -e 48.986392
N -t 1.687004 -n 8 -e 48.986103
N -t 1.687004 -n 5 -e 48.986175
N -t 1.687004 -n 7 -e 48.986175
N -t 1.687004 -n 1 -e 48.986103
N -t 1.687004 -n 3 -e 48.986247
r -t 1.687355183 -Hs 10 -Hd -2 -Ni 10 -Nx 416.19 -Ny 284.57 -Nz 0.00 -Ne 48.985841 -Nl MAC -Nw --- -Ma 62e -Md a -Ms 9 -Mt 0 
s -t 1.687365183 -Hs 10 -Hd -2 -Ni 10 -Nx 416.19 -Ny 284.57 -Nz 0.00 -Ne 48.985841 -Nl MAC -Nw --- -Ma 4f4 -Md 9 -Ms 0 -Mt 0 
N -t 1.687365 -n 6 -e 48.986173
N -t 1.687366 -n 8 -e 48.985885
N -t 1.687366 -n 9 -e 48.985773
N -t 1.687366 -n 5 -e 48.985956
N -t 1.687366 -n 7 -e 48.985956
N -t 1.687366 -n 1 -e 48.985884
N -t 1.687366 -n 3 -e 48.986028
r -t 1.687669790 -Hs 9 -Hd -2 -Ni 9 -Nx 261.66 -Ny 188.27 -Nz 0.00 -Ne 48.985773 -Nl MAC -Nw --- -Ma 4f4 -Md 9 -Ms 0 -Mt 0 
s -t 1.687679790 -Hs 9 -Hd 10 -Ni 9 -Nx 261.66 -Ny 188.27 -Nz 0.00 -Ne 48.985773 -Nl MAC -Nw --- -Ma 13a -Md a -Ms 9 -Mt 800 -Is 9.0 -Id 10.0 -It ack -Il 118 -If 0 -Ii 14 -Iv 32 -Pn tcp -Ps 0 -Pa 0 -Pf 0 -Po 0 
N -t 1.687680 -n 10 -e 48.984894
N -t 1.687681 -n 6 -e 48.985505
N -t 1.687681 -n 8 -e 48.985217
N -t 1.687681 -n 5 -e 48.985289
N -t 1.687681 -n 7 -e 48.985289
N -t 1.687681 -n 1 -e 48.985217
N -t 1.687681 -n 3 -e 48.985361
r -t 1.688624397 -Hs 10 -Hd 10 -Ni 10 -Nx 416.22 -Ny 284.59 -Nz 0.00 -Ne 48.984894 -Nl MAC -Nw --- -Ma 13a -Md a -Ms 9 -Mt 800 -Is 9.0 -Id 10.0 -It ack -Il 60 -If 0 -Ii 14 -Iv 32 -Pn tcp -Ps 0 -Pa 0 -Pf 1 -Po 0 
s -t 1.688634397 -Hs 10 -Hd -2 -Ni 10 -Nx 416.22 -Ny 284.59 -Nz 0.00 -Ne 48.984894 -Nl MAC -Nw --- -Ma 0 -Md 9 -Ms 0 -Mt 0 
N -t 1.688635 -n 6 -e 48.985286
N -t 1.688635 -n 8 -e 48.984998
N -t 1.688635 -n 9 -e 48.984697
N -t 1.688635 -n 5 -e 48.985070
N -t 1.688635 -n 7 -e 48.985070
N -t 1.688635 -n 1 -e 48.984998
N -t 1.688635 -n 3 -e 48.985142
r -t 1.688649397 -Hs 10 -Hd 10 -Ni 10 -Nx 416.22 -Ny 284.59 -Nz 0.00 -Ne 48.984615 -Nl AGT -Nw --- -Ma 13a -Md a -Ms 9 -Mt 800 -Is 9.0 -Id 10.0 -It ack -Il 60 -If 0 -Ii 14 -Iv 32 -Pn tcp -Ps 0 -Pa 0 -Pf 1 -Po 0 
s -t 1.688649397 -Hs 10 -Hd -2 -Ni 10 -Nx 416.22 -Ny 284.59 -Nz 0.00 -Ne 48.984615 -Nl AGT -Nw --- -Ma 0 -Md 0 -Ms 0 -Mt 0 -Is 10.0 -Id 9.0 -It tcp -Il 1540 -If 0 -Ii 15 -Iv 32 -Pn tcp -Ps 1 -Pa 0 -Pf 0 -Po 0 