n -t * -s 0  -x 995 -y 556 -Z 0 -z 30  -v circle -c green
n -t * -s 1  -x 482 -y 637 -Z 0 -z 30  -v circle -c green
n -t * -s 2  -x 549 -y 950 -Z 0 -z 30  -v circle -c green
n -t * -s 3  -x 708 -y 473 -Z 0 -z 30  -v circle -c green
n -t * -s 4  -x 233 -y 949 -Z 0 -z 30  -v circle -c green
n -t * -s 5  -x 354 -y 555 -Z 0 -z 30  -v circle -c green
n -t * -s 6  -x 432 -y 362 -Z 0 -z 30  -v circle -c green
n -t * -s 7  -x 587 -y 512 -Z 0 -z 30  -v circle -c green
n -t * -s 8  -x 456 -y 471 -Z 0 -z 30  -v circle -c green
n -t * -s 9  -x 248 -y 174 -Z 0 -z 30  -v circle -c green
n -t * -s 10  -x 388 -y 272 -Z 0 -z 30  -v circle -c green
n -t * -s 11  -x 475 -y 985 -Z 0 -z 30  -v circle -c green
V -t * -v 1.0a5 -a 0
W -t * -x 1000 -y 1000
A -t * -n 1 -p 0 -o 0xffffffff -c 31 -a 1
A -t * -h 1 -m 2147483647 -s 0
n -t 0.000000 -s 1 -x 482.000000 -y 637.000000 -U 0.741025 -V -24.989015 -T 24.290673
n -t 0.000000 -s 4 -x 233.000000 -y 949.000000 -U 0.737932 -V -4.945246 -T 90.794273
n -t 0.000000 -s 5 -x 354.000000 -y 555.000000 -U -17.365367 -V -24.463116 -T 14.511643
n -t 0.000000 -s 8 -x 456.000000 -y 471.000000 -U -14.742378 -V -20.190648 -T 21.841795
n -t 0.000000 -s 11 -x 475.000000 -y 985.000000 -U 0.130845 -V -4.998288 -T 191.065434
+ -t 0.034809998 -s 0 -d -1 -p message -e 32 -c 2 -a 0 -i 0 -k RTR 
- -t 0.034809998 -s 0 -d -1 -p message -e 32 -c 2 -a 0 -i 0 -k RTR
h -t 0.034809998 -s 0 -d -1 -p message -e 32 -c 2 -a 0 -i 0 -k RTR
+ -t 0.035124998 -s 0 -d -1 -p message -e 90 -c 2 -a 0 -i 0 -k MAC 
- -t 0.035124998 -s 0 -d -1 -p message -e 90 -c 2 -a 0 -i 0 -k MAC
h -t 0.035124998 -s 0 -d -1 -p message -e 90 -c 2 -a 0 -i 0 -k MAC
+ -t 0.087337168 -s 11 -d -1 -p message -e 32 -c 2 -a 0 -i 1 -k RTR 
- -t 0.087337168 -s 11 -d -1 -p message -e 32 -c 2 -a 0 -i 1 -k RTR
h -t 0.087337168 -s 11 -d -1 -p message -e 32 -c 2 -a 0 -i 1 -k RTR
+ -t 0.087732168 -s 11 -d -1 -p message -e 90 -c 2 -a 0 -i 1 -k MAC 
- -t 0.087732168 -s 11 -d -1 -p message -e 90 -c 2 -a 0 -i 1 -k MAC
h -t 0.087732168 -s 11 -d -1 -p message -e 90 -c 2 -a 0 -i 1 -k MAC
r -t 0.088452440 -s 2 -d -1 -p message -e 32 -c 2 -a 0 -i 1 -k MAC
r -t 0.088452983 -s 4 -d -1 -p message -e 32 -c 2 -a 0 -i 1 -k MAC
r -t 0.088477440 -s 2 -d -1 -p message -e 32 -c 2 -a 0 -i 1 -k RTR
r -t 0.088477983 -s 4 -d -1 -p message -e 32 -c 2 -a 0 -i 1 -k RTR
+ -t 0.178826222 -s 1 -d -1 -p message -e 32 -c 2 -a 0 -i 2 -k RTR 
- -t 0.178826222 -s 1 -d -1 -p message -e 32 -c 2 -a 0 -i 2 -k RTR
h -t 0.178826222 -s 1 -d -1 -p message -e 32 -c 2 -a 0 -i 2 -k RTR
+ -t 0.179141222 -s 1 -d -1 -p message -e 90 -c 2 -a 0 -i 2 -k MAC 
- -t 0.179141222 -s 1 -d -1 -p message -e 90 -c 2 -a 0 -i 2 -k MAC
h -t 0.179141222 -s 1 -d -1 -p message -e 90 -c 2 -a 0 -i 2 -k MAC
r -t 0.179861738 -s 5 -d -1 -p message -e 32 -c 2 -a 0 -i 2 -k MAC
r -t 0.179861755 -s 7 -d -1 -p message -e 32 -c 2 -a 0 -i 2 -k MAC
r -t 0.179861781 -s 8 -d -1 -p message -e 32 -c 2 -a 0 -i 2 -k MAC
r -t 0.179886738 -s 5 -d -1 -p message -e 32 -c 2 -a 0 -i 2 -k RTR
r -t 0.179886755 -s 7 -d -1 -p message -e 32 -c 2 -a 0 -i 2 -k RTR
r -t 0.179886781 -s 8 -d -1 -p message -e 32 -c 2 -a 0 -i 2 -k RTR
+ -t 0.335213882 -s 10 -d -1 -p message -e 32 -c 2 -a 0 -i 3 -k RTR 
- -t 0.335213882 -s 10 -d -1 -p message -e 32 -c 2 -a 0 -i 3 -k RTR
h -t 0.335213882 -s 10 -d -1 -p message -e 32 -c 2 -a 0 -i 3 -k RTR
+ -t 0.335688882 -s 10 -d -1 -p message -e 90 -c 2 -a 0 -i 3 -k MAC 
- -t 0.335688882 -s 10 -d -1 -p message -e 90 -c 2 -a 0 -i 3 -k MAC
h -t 0.335688882 -s 10 -d -1 -p message -e 90 -c 2 -a 0 -i 3 -k MAC
r -t 0.336409215 -s 6 -d -1 -p message -e 32 -c 2 -a 0 -i 3 -k MAC
r -t 0.336409451 -s 9 -d -1 -p message -e 32 -c 2 -a 0 -i 3 -k MAC
r -t 0.336409556 -s 8 -d -1 -p message -e 32 -c 2 -a 0 -i 3 -k MAC
r -t 0.336434215 -s 6 -d -1 -p message -e 32 -c 2 -a 0 -i 3 -k RTR
r -t 0.336434451 -s 9 -d -1 -p message -e 32 -c 2 -a 0 -i 3 -k RTR
r -t 0.336434556 -s 8 -d -1 -p message -e 32 -c 2 -a 0 -i 3 -k RTR
+ -t 0.471615760 -s 6 -d -1 -p message -e 32 -c 2 -a 0 -i 4 -k RTR 
- -t 0.471615760 -s 6 -d -1 -p message -e 32 -c 2 -a 0 -i 4 -k RTR
h -t 0.471615760 -s 6 -d -1 -p message -e 32 -c 2 -a 0 -i 4 -k RTR
+ -t 0.471990760 -s 6 -d -1 -p message -e 90 -c 2 -a 0 -i 4 -k MAC 
- -t 0.471990760 -s 6 -d -1 -p message -e 90 -c 2 -a 0 -i 4 -k MAC
h -t 0.471990760 -s 6 -d -1 -p message -e 90 -c 2 -a 0 -i 4 -k MAC
r -t 0.472711094 -s 10 -d -1 -p message -e 32 -c 2 -a 0 -i 4 -k MAC
r -t 0.472711096 -s 8 -d -1 -p message -e 32 -c 2 -a 0 -i 4 -k MAC
r -t 0.472711430 -s 5 -d -1 -p message -e 32 -c 2 -a 0 -i 4 -k MAC
r -t 0.472711479 -s 7 -d -1 -p message -e 32 -c 2 -a 0 -i 4 -k MAC
r -t 0.472736094 -s 10 -d -1 -p message -e 32 -c 2 -a 0 -i 4 -k RTR
r -t 0.472736096 -s 8 -d -1 -p message -e 32 -c 2 -a 0 -i 4 -k RTR
r -t 0.472736430 -s 5 -d -1 -p message -e 32 -c 2 -a 0 -i 4 -k RTR
r -t 0.472736479 -s 7 -d -1 -p message -e 32 -c 2 -a 0 -i 4 -k RTR
n -t 0.500000 -s 0 -x 995.000000 -y 556.000000 -U -22.964628 -V -9.880580 -T 25.909411
n -t 0.500000 -s 3 -x 708.000000 -y 473.000000 -U -24.761767 -V -7.928109 -T 9.207744
n -t 0.500000 -s 6 -x 432.000000 -y 362.000000 -U -13.816577 -V 9.904655 -T 24.029106
n -t 0.500000 -s 7 -x 587.000000 -y 512.000000 -U 11.759304 -V -22.061704 -T 9.609412
n -t 0.500000 -s 10 -x 388.000000 -y 272.000000 -U 23.745433 -V 10.590298 -T 12.086535
v -t 0.5 -e sim_annotation 0.5 1 Starting CBR0 node0 to node1
v -t 0.5 -e sim_annotation 0.5 2 Starting CBR1 node10 to node9
+ -t 0.627015528 -s 4 -d -1 -p message -e 32 -c 2 -a 0 -i 6 -k RTR 
- -t 0.627015528 -s 4 -d -1 -p message -e 32 -c 2 -a 0 -i 6 -k RTR
h -t 0.627015528 -s 4 -d -1 -p message -e 32 -c 2 -a 0 -i 6 -k RTR
+ -t 0.627190528 -s 4 -d -1 -p message -e 90 -c 2 -a 0 -i 6 -k MAC 
- -t 0.627190528 -s 4 -d -1 -p message -e 90 -c 2 -a 0 -i 6 -k MAC
h -t 0.627190528 -s 4 -d -1 -p message -e 90 -c 2 -a 0 -i 6 -k MAC
+ -t 0.627207570 -s 8 -d -1 -p message -e 32 -c 2 -a 0 -i 5 -k RTR 
- -t 0.627207570 -s 8 -d -1 -p message -e 32 -c 2 -a 0 -i 5 -k RTR
h -t 0.627207570 -s 8 -d -1 -p message -e 32 -c 2 -a 0 -i 5 -k RTR
r -t 0.627911342 -s 11 -d -1 -p message -e 32 -c 2 -a 0 -i 6 -k MAC
r -t 0.627936342 -s 11 -d -1 -p message -e 32 -c 2 -a 0 -i 6 -k RTR
+ -t 0.628846302 -s 8 -d -1 -p message -e 90 -c 2 -a 0 -i 5 -k MAC 
- -t 0.628846302 -s 8 -d -1 -p message -e 90 -c 2 -a 0 -i 5 -k MAC
h -t 0.628846302 -s 8 -d -1 -p message -e 90 -c 2 -a 0 -i 5 -k MAC
r -t 0.629566623 -s 6 -d -1 -p message -e 32 -c 2 -a 0 -i 5 -k MAC
r -t 0.629566741 -s 5 -d -1 -p message -e 32 -c 2 -a 0 -i 5 -k MAC
r -t 0.629566804 -s 7 -d -1 -p message -e 32 -c 2 -a 0 -i 5 -k MAC
r -t 0.629566858 -s 1 -d -1 -p message -e 32 -c 2 -a 0 -i 5 -k MAC
r -t 0.629566946 -s 10 -d -1 -p message -e 32 -c 2 -a 0 -i 5 -k MAC
r -t 0.629591623 -s 6 -d -1 -p message -e 32 -c 2 -a 0 -i 5 -k RTR
r -t 0.629591741 -s 5 -d -1 -p message -e 32 -c 2 -a 0 -i 5 -k RTR
r -t 0.629591804 -s 7 -d -1 -p message -e 32 -c 2 -a 0 -i 5 -k RTR
r -t 0.629591858 -s 1 -d -1 -p message -e 32 -c 2 -a 0 -i 5 -k RTR
r -t 0.629591946 -s 10 -d -1 -p message -e 32 -c 2 -a 0 -i 5 -k RTR
n -t 0.700000 -s 2 -x 549.000000 -y 950.000000 -U -1.151030 -V -19.966851 -T 42.570559
n -t 0.700000 -s 9 -x 248.000000 -y 174.000000 -U 13.833688 -V 14.443998 -T 29.493220
+ -t 0.883467077 -s 2 -d -1 -p message -e 32 -c 2 -a 0 -i 7 -k RTR 
- -t 0.883467077 -s 2 -d -1 -p message -e 32 -c 2 -a 0 -i 7 -k RTR
h -t 0.883467077 -s 2 -d -1 -p message -e 32 -c 2 -a 0 -i 7 -k RTR
+ -t 0.883662077 -s 2 -d -1 -p message -e 90 -c 2 -a 0 -i 7 -k MAC 
- -t 0.883662077 -s 2 -d -1 -p message -e 90 -c 2 -a 0 -i 7 -k MAC
h -t 0.883662077 -s 2 -d -1 -p message -e 90 -c 2 -a 0 -i 7 -k MAC
r -t 0.884382348 -s 11 -d -1 -p message -e 32 -c 2 -a 0 -i 7 -k MAC
r -t 0.884407348 -s 11 -d -1 -p message -e 32 -c 2 -a 0 -i 7 -k RTR
+ -t 1.000000000 -s 0 -d -1 -p tcp -e 40 -c 2 -a 0 -i 8 -k AGT 
- -t 1.000000000 -s 0 -d -1 -p tcp -e 40 -c 2 -a 0 -i 8 -k AGT
h -t 1.000000000 -s 0 -d -1 -p tcp -e 40 -c 2 -a 0 -i 8 -k AGT
+ -t 1.000000000 -s 10 -d -1 -p tcp -e 40 -c 2 -a 0 -i 9 -k AGT 
- -t 1.000000000 -s 10 -d -1 -p tcp -e 40 -c 2 -a 0 -i 9 -k AGT
h -t 1.000000000 -s 10 -d -1 -p tcp -e 40 -c 2 -a 0 -i 9 -k AGT
+ -t 1.281900580 -s 7 -d -1 -p message -e 32 -c 2 -a 0 -i 10 -k RTR 
- -t 1.281900580 -s 7 -d -1 -p message -e 32 -c 2 -a 0 -i 10 -k RTR
h -t 1.281900580 -s 7 -d -1 -p message -e 32 -c 2 -a 0 -i 10 -k RTR
+ -t 1.282495580 -s 7 -d -1 -p message -e 90 -c 2 -a 0 -i 10 -k MAC 
- -t 1.282495580 -s 7 -d -1 -p message -e 90 -c 2 -a 0 -i 10 -k MAC
h -t 1.282495580 -s 7 -d -1 -p message -e 90 -c 2 -a 0 -i 10 -k MAC
r -t 1.283215902 -s 3 -d -1 -p message -e 32 -c 2 -a 0 -i 10 -k MAC
r -t 1.283216107 -s 1 -d -1 -p message -e 32 -c 2 -a 0 -i 10 -k MAC
r -t 1.283216136 -s 8 -d -1 -p message -e 32 -c 2 -a 0 -i 10 -k MAC
r -t 1.283216297 -s 6 -d -1 -p message -e 32 -c 2 -a 0 -i 10 -k MAC
r -t 1.283240902 -s 3 -d -1 -p message -e 32 -c 2 -a 0 -i 10 -k RTR
r -t 1.283241107 -s 1 -d -1 -p message -e 32 -c 2 -a 0 -i 10 -k RTR
r -t 1.283241136 -s 8 -d -1 -p message -e 32 -c 2 -a 0 -i 10 -k RTR
r -t 1.283241297 -s 6 -d -1 -p message -e 32 -c 2 -a 0 -i 10 -k RTR
+ -t 1.601442236 -s 3 -d -1 -p message -e 32 -c 2 -a 0 -i 11 -k RTR 
- -t 1.601442236 -s 3 -d -1 -p message -e 32 -c 2 -a 0 -i 11 -k RTR
h -t 1.601442236 -s 3 -d -1 -p message -e 32 -c 2 -a 0 -i 11 -k RTR
+ -t 1.601817236 -s 3 -d -1 -p message -e 90 -c 2 -a 0 -i 11 -k MAC 
- -t 1.601817236 -s 3 -d -1 -p message -e 90 -c 2 -a 0 -i 11 -k MAC
h -t 1.601817236 -s 3 -d -1 -p message -e 90 -c 2 -a 0 -i 11 -k MAC
r -t 1.602537516 -s 7 -d -1 -p message -e 32 -c 2 -a 0 -i 11 -k MAC
r -t 1.602538029 -s 1 -d -1 -p message -e 32 -c 2 -a 0 -i 11 -k MAC
r -t 1.602538068 -s 8 -d -1 -p message -e 32 -c 2 -a 0 -i 11 -k MAC
r -t 1.602562516 -s 7 -d -1 -p message -e 32 -c 2 -a 0 -i 11 -k RTR
r -t 1.602563029 -s 1 -d -1 -p message -e 32 -c 2 -a 0 -i 11 -k RTR
r -t 1.602563068 -s 8 -d -1 -p message -e 32 -c 2 -a 0 -i 11 -k RTR
+ -t 1.642182869 -s 5 -d -1 -p message -e 32 -c 2 -a 0 -i 12 -k RTR 
- -t 1.642182869 -s 5 -d -1 -p message -e 32 -c 2 -a 0 -i 12 -k RTR
h -t 1.642182869 -s 5 -d -1 -p message -e 32 -c 2 -a 0 -i 12 -k RTR
+ -t 1.642697869 -s 5 -d -1 -p message -e 90 -c 2 -a 0 -i 12 -k MAC 
- -t 1.642697869 -s 5 -d -1 -p message -e 90 -c 2 -a 0 -i 12 -k MAC
h -t 1.642697869 -s 5 -d -1 -p message -e 90 -c 2 -a 0 -i 12 -k MAC
r -t 1.643418307 -s 8 -d -1 -p message -e 32 -c 2 -a 0 -i 12 -k MAC
r -t 1.643418429 -s 6 -d -1 -p message -e 32 -c 2 -a 0 -i 12 -k MAC
r -t 1.643418460 -s 1 -d -1 -p message -e 32 -c 2 -a 0 -i 12 -k MAC
r -t 1.643418694 -s 10 -d -1 -p message -e 32 -c 2 -a 0 -i 12 -k MAC
r -t 1.643443307 -s 8 -d -1 -p message -e 32 -c 2 -a 0 -i 12 -k RTR
r -t 1.643443429 -s 6 -d -1 -p message -e 32 -c 2 -a 0 -i 12 -k RTR
r -t 1.643443460 -s 1 -d -1 -p message -e 32 -c 2 -a 0 -i 12 -k RTR
r -t 1.643443694 -s 10 -d -1 -p message -e 32 -c 2 -a 0 -i 12 -k RTR
+ -t 1.680392721 -s 9 -d -1 -p message -e 32 -c 2 -a 0 -i 13 -k RTR 
- -t 1.680392721 -s 9 -d -1 -p message -e 32 -c 2 -a 0 -i 13 -k RTR
h -t 1.680392721 -s 9 -d -1 -p message -e 32 -c 2 -a 0 -i 13 -k RTR
+ -t 1.680507721 -s 9 -d -1 -p message -e 90 -c 2 -a 0 -i 13 -k MAC 
- -t 1.680507721 -s 9 -d -1 -p message -e 90 -c 2 -a 0 -i 13 -k MAC
h -t 1.680507721 -s 9 -d -1 -p message -e 90 -c 2 -a 0 -i 13 -k MAC
r -t 1.681228328 -s 10 -d -1 -p message -e 32 -c 2 -a 0 -i 13 -k MAC
r -t 1.681228525 -s 6 -d -1 -p message -e 32 -c 2 -a 0 -i 13 -k MAC
r -t 1.681253328 -s 10 -d -1 -p message -e 32 -c 2 -a 0 -i 13 -k RTR
+ -t 1.681253328 -s 10 -d 9 -p tcp -e 80 -c 2 -a 0 -i 9 -k RTR 
- -t 1.681253328 -s 10 -d 9 -p tcp -e 80 -c 2 -a 0 -i 9 -k RTR
h -t 1.681253328 -s 10 -d 9 -p tcp -e 80 -c 2 -a 0 -i 9 -k RTR
r -t 1.681253525 -s 6 -d -1 -p message -e 32 -c 2 -a 0 -i 13 -k RTR
+ -t 1.681648328 -s 10 -d -1 -p ARP -e 86 -c 2 -a 0 -i 0 -k MAC 
- -t 1.681648328 -s 10 -d -1 -p ARP -e 86 -c 2 -a 0 -i 0 -k MAC
h -t 1.681648328 -s 10 -d -1 -p ARP -e 86 -c 2 -a 0 -i 0 -k MAC
r -t 1.682336626 -s 6 -d -1 -p ARP -e 28 -c 2 -a 0 -i 0 -k MAC
r -t 1.682336839 -s 8 -d -1 -p ARP -e 28 -c 2 -a 0 -i 0 -k MAC
r -t 1.682336935 -s 9 -d -1 -p ARP -e 28 -c 2 -a 0 -i 0 -k MAC
r -t 1.682337151 -s 5 -d -1 -p ARP -e 28 -c 2 -a 0 -i 0 -k MAC
+ -t 1.682546935 -s 9 -d -1 -p RTS -e 44 -c 2 -a 0 -i 0 -k MAC 
- -t 1.682546935 -s 9 -d -1 -p RTS -e 44 -c 2 -a 0 -i 0 -k MAC
h -t 1.682546935 -s 9 -d -1 -p RTS -e 44 -c 2 -a 0 -i 0 -k MAC
r -t 1.682899542 -s 10 -d -1 -p RTS -e 44 -c 2 -a 0 -i 0 -k MAC
+ -t 1.682909542 -s 10 -d -1 -p CTS -e 38 -c 2 -a 0 -i 0 -k MAC 
- -t 1.682909542 -s 10 -d -1 -p CTS -e 38 -c 2 -a 0 -i 0 -k MAC
h -t 1.682909542 -s 10 -d -1 -p CTS -e 38 -c 2 -a 0 -i 0 -k MAC
r -t 1.683214149 -s 9 -d -1 -p CTS -e 38 -c 2 -a 0 -i 0 -k MAC
+ -t 1.683224149 -s 9 -d -1 -p ARP -e 86 -c 2 -a 0 -i 0 -k MAC 
- -t 1.683224149 -s 9 -d -1 -p ARP -e 86 -c 2 -a 0 -i 0 -k MAC
h -t 1.683224149 -s 9 -d -1 -p ARP -e 86 -c 2 -a 0 -i 0 -k MAC
r -t 1.683912756 -s 10 -d -1 -p ARP -e 28 -c 2 -a 0 -i 0 -k MAC
+ -t 1.683922756 -s 10 -d -1 -p ACK -e 38 -c 2 -a 0 -i 0 -k MAC 
- -t 1.683922756 -s 10 -d -1 -p ACK -e 38 -c 2 -a 0 -i 0 -k MAC
h -t 1.683922756 -s 10 -d -1 -p ACK -e 38 -c 2 -a 0 -i 0 -k MAC
r -t 1.684227363 -s 9 -d -1 -p ACK -e 38 -c 2 -a 0 -i 0 -k MAC
+ -t 1.684656756 -s 10 -d -1 -p RTS -e 44 -c 2 -a 0 -i 0 -k MAC 
- -t 1.684656756 -s 10 -d -1 -p RTS -e 44 -c 2 -a 0 -i 0 -k MAC
h -t 1.684656756 -s 10 -d -1 -p RTS -e 44 -c 2 -a 0 -i 0 -k MAC
r -t 1.685009363 -s 9 -d -1 -p RTS -e 44 -c 2 -a 0 -i 0 -k MAC
+ -t 1.685019363 -s 9 -d -1 -p CTS -e 38 -c 2 -a 0 -i 0 -k MAC 
- -t 1.685019363 -s 9 -d -1 -p CTS -e 38 -c 2 -a 0 -i 0 -k MAC
h -t 1.685019363 -s 9 -d -1 -p CTS -e 38 -c 2 -a 0 -i 0 -k MAC
r -t 1.685323970 -s 10 -d -1 -p CTS -e 38 -c 2 -a 0 -i 0 -k MAC
+ -t 1.685333970 -s 10 -d 9 -p tcp -e 138 -c 2 -a 0 -i 9 -k MAC 
- -t 1.685333970 -s 10 -d 9 -p tcp -e 138 -c 2 -a 0 -i 9 -k MAC
h -t 1.685333970 -s 10 -d 9 -p tcp -e 138 -c 2 -a 0 -i 9 -k MAC
r -t 1.686438576 -s 9 -d 9 -p tcp -e 80 -c 2 -a 0 -i 9 -k MAC
+ -t 1.686448576 -s 9 -d -1 -p ACK -e 38 -c 2 -a 0 -i 0 -k MAC 
- -t 1.686448576 -s 9 -d -1 -p ACK -e 38 -c 2 -a 0 -i 0 -k MAC
h -t 1.686448576 -s 9 -d -1 -p ACK -e 38 -c 2 -a 0 -i 0 -k MAC
r -t 1.686463576 -s 9 -d 9 -p tcp -e 80 -c 2 -a 0 -i 9 -k AGT
+ -t 1.686463576 -s 9 -d -1 -p ack -e 40 -c 2 -a 0 -i 14 -k AGT 
- -t 1.686463576 -s 9 -d -1 -p ack -e 40 -c 2 -a 0 -i 14 -k AGT
h -t 1.686463576 -s 9 -d -1 -p ack -e 40 -c 2 -a 0 -i 14 -k AGT
+ -t 1.686463576 -s 9 -d 10 -p ack -e 60 -c 2 -a 0 -i 14 -k RTR 
- -t 1.686463576 -s 9 -d 10 -p ack -e 60 -c 2 -a 0 -i 14 -k RTR
h -t 1.686463576 -s 9 -d 10 -p ack -e 60 -c 2 -a 0 -i 14 -k RTR
r -t 1.686753183 -s 10 -d -1 -p ACK -e 38 -c 2 -a 0 -i 0 -k MAC
+ -t 1.687002576 -s 9 -d -1 -p RTS -e 44 -c 2 -a 0 -i 0 -k MAC 
- -t 1.687002576 -s 9 -d -1 -p RTS -e 44 -c 2 -a 0 -i 0 -k MAC
h -t 1.687002576 -s 9 -d -1 -p RTS -e 44 -c 2 -a 0 -i 0 -k MAC
r -t 1.687355183 -s 10 -d -1 -p RTS -e 44 -c 2 -a 0 -i 0 -k MAC
+ -t 1.687365183 -s 10 -d -1 -p CTS -e 38 -c 2 -a 0 -i 0 -k MAC 
- -t 1.687365183 -s 10 -d -1 -p CTS -e 38 -c 2 -a 0 -i 0 -k MAC
h -t 1.687365183 -s 10 -d -1 -p CTS -e 38 -c 2 -a 0 -i 0 -k MAC
r -t 1.687669790 -s 9 -d -1 -p CTS -e 38 -c 2 -a 0 -i 0 -k MAC
+ -t 1.687679790 -s 9 -d 10 -p ack -e 118 -c 2 -a 0 -i 14 -k MAC 
- -t 1.687679790 -s 9 -d 10 -p ack -e 118 -c 2 -a 0 -i 14 -k MAC
h -t 1.687679790 -s 9 -d 10 -p ack -e 118 -c 2 -a 0 -i 14 -k MAC
r -t 1.688624397 -s 10 -d 10 -p ack -e 60 -c 2 -a 0 -i 14 -k MAC
+ -t 1.688634397 -s 10 -d -1 -p ACK -e 38 -c 2 -a 0 -i 0 -k MAC 
- -t 1.688634397 -s 10 -d -1 -p ACK -e 38 -c 2 -a 0 -i 0 -k MAC
h -t 1.688634397 -s 10 -d -1 -p ACK -e 38 -c 2 -a 0 -i 0 -k MAC
r -t 1.688649397 -s 10 -d 10 -p ack -e 60 -c 2 -a 0 -i 14 -k AGT
+ -t 1.688649397 -s 10 -d -1 -p tcp -e 1540 -c 2 -a 0 -i 15 -k AGT 
- -t 1.688649397 -s 10 -d -1 -p tcp -e 1540 -c 2 -a 0 -i 15 -k AGT
h -t 1.688649397 -s 10 -d -1 -p tcp -e 1540 -c 2 -a 0 -i 15 -k AGT
+ -t 1.688649397 -s 10 -d 9 -p tcp -e 1560 -c 2 -a 0 -i 15 -k RTR 
- -t 1.688649397 -s 10 -d 9 -p tcp -e 1560 -c 2 -a 0 -i 15 -k RTR
h -t 1.688649397 -s 10 -d 9 -p tcp -e 1560 -c 2 -a 0 -i 15 -k RTR
+ -t 1.688649397 -s 10 -d -1 -p tcp -e 1540 -c 2 -a 0 -i 16 -k AGT 
- -t 1.688649397 -s 10 -d -1 -p tcp -e 1540 -c 2 -a 0 -i 16 -k AGT
h -t 1.688649397 -s 10 -d -1 -p tcp -e 1540 -c 2 -a 0 -i 16 -k AGT
+ -t 1.688649397 -s 10 -d 9 -p tcp -e 1560 -c 2 -a 0 -i 16 -k RTR 
- -t 1.688649397 -s 10 -d 9 -p tcp -e 1560 -c 2 -a 0 -i 16 -k RTR
h -t 1.688649397 -s 10 -d 9 -p tcp -e 1560 -c 2 -a 0 -i 16 -k RTR
r -t 1.688939004 -s 9 -d -1 -p ACK -e 38 -c 2 -a 0 -i 0 -k MAC
+ -t 1.689028397 -s 10 -d -1 -p RTS -e 44 -c 2 -a 0 -i 0 -k MAC 
- -t 1.689028397 -s 10 -d -1 -p RTS -e 44 -c 2 -a 0 -i 0 -k MAC
h -t 1.689028397 -s 10 -d -1 -p RTS -e 44 -c 2 -a 0 -i 0 -k MAC
r -t 1.689381004 -s 9 -d -1 -p RTS -e 44 -c 2 -a 0 -i 0 -k MAC
+ -t 1.689391004 -s 9 -d -1 -p CTS -e 38 -c 2 -a 0 -i 0 -k MAC 
- -t 1.689391004 -s 9 -d -1 -p CTS -e 38 -c 2 -a 0 -i 0 -k MAC
h -t 1.689391004 -s 9 -d -1 -p CTS -e 38 -c 2 -a 0 -i 0 -k MAC
r -t 1.689695611 -s 10 -d -1 -p CTS -e 38 -c 2 -a 0 -i 0 -k MAC
+ -t 1.689705611 -s 10 -d 9 -p tcp -e 1618 -c 2 -a 0 -i 15 -k MAC 
- -t 1.689705611 -s 10 -d 9 -p tcp -e 1618 -c 2 -a 0 -i 15 -k MAC
h -t 1.689705611 -s 10 -d 9 -p tcp -e 1618 -c 2 -a 0 -i 15 -k MAC
r -t 1.702650218 -s 9 -d 9 -p tcp -e 1560 -c 2 -a 0 -i 15 -k MAC
+ -t 1.702660218 -s 9 -d -1 -p ACK -e 38 -c 2 -a 0 -i 0 -k MAC 
- -t 1.702660218 -s 9 -d -1 -p ACK -e 38 -c 2 -a 0 -i 0 -k MAC
h -t 1.702660218 -s 9 -d -1 -p ACK -e 38 -c 2 -a 0 -i 0 -k MAC
r -t 1.702675218 -s 9 -d 9 -p tcp -e 1560 -c 2 -a 0 -i 15 -k AGT
+ -t 1.702675218 -s 9 -d -1 -p ack -e 40 -c 2 -a 0 -i 17 -k AGT 
- -t 1.702675218 -s 9 -d -1 -p ack -e 40 -c 2 -a 0 -i 17 -k AGT
h -t 1.702675218 -s 9 -d -1 -p ack -e 40 -c 2 -a 0 -i 17 -k AGT
+ -t 1.702675218 -s 9 -d 10 -p ack -e 60 -c 2 -a 0 -i 17 -k RTR 
- -t 1.702675218 -s 9 -d 10 -p ack -e 60 -c 2 -a 0 -i 17 -k RTR
h -t 1.702675218 -s 9 -d 10 -p ack -e 60 -c 2 -a 0 -i 17 -k RTR
r -t 1.702964826 -s 10 -d -1 -p ACK -e 38 -c 2 -a 0 -i 0 -k MAC
+ -t 1.703134218 -s 9 -d -1 -p RTS -e 44 -c 2 -a 0 -i 0 -k MAC 
- -t 1.703134218 -s 9 -d -1 -p RTS -e 44 -c 2 -a 0 -i 0 -k MAC
h -t 1.703134218 -s 9 -d -1 -p RTS -e 44 -c 2 -a 0 -i 0 -k MAC
r -t 1.703486826 -s 10 -d -1 -p RTS -e 44 -c 2 -a 0 -i 0 -k MAC
+ -t 1.703496826 -s 10 -d -1 -p CTS -e 38 -c 2 -a 0 -i 0 -k MAC 
- -t 1.703496826 -s 10 -d -1 -p CTS -e 38 -c 2 -a 0 -i 0 -k MAC
h -t 1.703496826 -s 10 -d -1 -p CTS -e 38 -c 2 -a 0 -i 0 -k MAC
r -t 1.703801433 -s 9 -d -1 -p CTS -e 38 -c 2 -a 0 -i 0 -k MAC
+ -t 1.703811433 -s 9 -d 10 -p ack -e 118 -c 2 -a 0 -i 17 -k MAC 
- -t 1.703811433 -s 9 -d 10 -p ack -e 118 -c 2 -a 0 -i 17 -k MAC
h -t 1.703811433 -s 9 -d 10 -p ack -e 118 -c 2 -a 0 -i 17 -k MAC
r -t 1.704756040 -s 10 -d 10 -p ack -e 60 -c 2 -a 0 -i 17 -k MAC
+ -t 1.704766040 -s 10 -d -1 -p ACK -e 38 -c 2 -a 0 -i 0 -k MAC 
- -t 1.704766040 -s 10 -d -1 -p ACK -e 38 -c 2 -a 0 -i 0 -k MAC
h -t 1.704766040 -s 10 -d -1 -p ACK -e 38 -c 2 -a 0 -i 0 -k MAC
r -t 1.704781040 -s 10 -d 10 -p ack -e 60 -c 2 -a 0 -i 17 -k AGT
+ -t 1.704781040 -s 10 -d -1 -p tcp -e 1540 -c 2 -a 0 -i 18 -k AGT 
- -t 1.704781040 -s 10 -d -1 -p tcp -e 1540 -c 2 -a 0 -i 18 -k AGT
h -t 1.704781040 -s 10 -d -1 -p tcp -e 1540 -c 2 -a 0 -i 18 -k AGT
+ -t 1.704781040 -s 10 -d 9 -p tcp -e 1560 -c 2 -a 0 -i 18 -k RTR 
- -t 1.704781040 -s 10 -d 9 -p tcp -e 1560 -c 2 -a 0 -i 18 -k RTR
h -t 1.704781040 -s 10 -d 9 -p tcp -e 1560 -c 2 -a 0 -i 18 -k RTR
+ -t 1.704781040 -s 10 -d -1 -p tcp -e 1540 -c 2 -a 0 -i 19 -k AGT 
- -t 1.704781040 -s 10 -d -1 -p tcp -e 1540 -c 2 -a 0 -i 19 -k AGT
h -t 1.704781040 -s 10 -d -1 -p tcp -e 1540 -c 2 -a 0 -i 19 -k AGT
+ -t 1.704781040 -s 10 -d 9 -p tcp -e 1560 -c 2 -a 0 -i 19 -k RTR 
- -t 1.704781040 -s 10 -d 9 -p tcp -e 1560 -c 2 -a 0 -i 19 -k RTR
h -t 1.704781040 -s 10 -d 9 -p tcp -e 1560 -c 2 -a 0 -i 19 -k RTR
r -t 1.705070648 -s 9 -d -1 -p ACK -e 38 -c 2 -a 0 -i 0 -k MAC
+ -t 1.705240040 -s 10 -d -1 -p RTS -e 44 -c 2 -a 0 -i 0 -k MAC 
- -t 1.705240040 -s 10 -d -1 -p RTS -e 44 -c 2 -a 0 -i 0 -k MAC
h -t 1.705240040 -s 10 -d -1 -p RTS -e 44 -c 2 -a 0 -i 0 -k MAC
r -t 1.705592648 -s 9 -d -1 -p RTS -e 44 -c 2 -a 0 -i 0 -k MAC
+ -t 1.705602648 -s 9 -d -1 -p CTS -e 38 -c 2 -a 0 -i 0 -k MAC 
- -t 1.705602648 -s 9 -d -1 -p CTS -e 38 -c 2 -a 0 -i 0 -k MAC
h -t 1.705602648 -s 9 -d -1 -p CTS -e 38 -c 2 -a 0 -i 0 -k MAC
r -t 1.705907255 -s 10 -d -1 -p CTS -e 38 -c 2 -a 0 -i 0 -k MAC
+ -t 1.705917255 -s 10 -d 9 -p tcp -e 1618 -c 2 -a 0 -i 16 -k MAC 
- -t 1.705917255 -s 10 -d 9 -p tcp -e 1618 -c 2 -a 0 -i 16 -k MAC
h -t 1.705917255 -s 10 -d 9 -p tcp -e 1618 -c 2 -a 0 -i 16 -k MAC
r -t 1.718861862 -s 9 -d 9 -p tcp -e 1560 -c 2 -a 0 -i 16 -k MAC
+ -t 1.718871862 -s 9 -d -1 -p ACK -e 38 -c 2 -a 0 -i 0 -k MAC 
- -t 1.718871862 -s 9 -d -1 -p ACK -e 38 -c 2 -a 0 -i 0 -k MAC
h -t 1.718871862 -s 9 -d -1 -p ACK -e 38 -c 2 -a 0 -i 0 -k MAC
r -t 1.718886862 -s 9 -d 9 -p tcp -e 1560 -c 2 -a 0 -i 16 -k AGT
+ -t 1.718886862 -s 9 -d -1 -p ack -e 40 -c 2 -a 0 -i 20 -k AGT 
- -t 1.718886862 -s 9 -d -1 -p ack -e 40 -c 2 -a 0 -i 20 -k AGT
h -t 1.718886862 -s 9 -d -1 -p ack -e 40 -c 2 -a 0 -i 20 -k AGT
+ -t 1.718886862 -s 9 -d 10 -p ack -e 60 -c 2 -a 0 -i 20 -k RTR 
- -t 1.718886862 -s 9 -d 10 -p ack -e 60 -c 2 -a 0 -i 20 -k RTR
h -t 1.718886862 -s 9 -d 10 -p ack -e 60 -c 2 -a 0 -i 20 -k RTR
r -t 1.719176470 -s 10 -d -1 -p ACK -e 38 -c 2 -a 0 -i 0 -k MAC
+ -t 1.719365862 -s 9 -d -1 -p RTS -e 44 -c 2 -a 0 -i 0 -k MAC 
- -t 1.719365862 -s 9 -d -1 -p RTS -e 44 -c 2 -a 0 -i 0 -k MAC
h -t 1.719365862 -s 9 -d -1 -p RTS -e 44 -c 2 -a 0 -i 0 -k MAC
r -t 1.719718470 -s 10 -d -1 -p RTS -e 44 -c 2 -a 0 -i 0 -k MAC
+ -t 1.719728470 -s 10 -d -1 -p CTS -e 38 -c 2 -a 0 -i 0 -k MAC 
- -t 1.719728470 -s 10 -d -1 -p CTS -e 38 -c 2 -a 0 -i 0 -k MAC
h -t 1.719728470 -s 10 -d -1 -p CTS -e 38 -c 2 -a 0 -i 0 -k MAC
r -t 1.720033078 -s 9 -d -1 -p CTS -e 38 -c 2 -a 0 -i 0 -k MAC
+ -t 1.720043078 -s 9 -d 10 -p ack -e 118 -c 2 -a 0 -i 20 -k MAC 
- -t 1.720043078 -s 9 -d 10 -p ack -e 118 -c 2 -a 0 -i 20 -k MAC
h -t 1.720043078 -s 9 -d 10 -p ack -e 118 -c 2 -a 0 -i 20 -k MAC
r -t 1.720987685 -s 10 -d 10 -p ack -e 60 -c 2 -a 0 -i 20 -k MAC
+ -t 1.720997685 -s 10 -d -1 -p ACK -e 38 -c 2 -a 0 -i 0 -k MAC 
- -t 1.720997685 -s 10 -d -1 -p ACK -e 38 -c 2 -a 0 -i 0 -k MAC
h -t 1.720997685 -s 10 -d -1 -p ACK -e 38 -c 2 -a 0 -i 0 -k MAC
r -t 1.721012685 -s 10 -d 10 -p ack -e 60 -c 2 -a 0 -i 20 -k AGT
+ -t 1.721012685 -s 10 -d -1 -p tcp -e 1540 -c 2 -a 0 -i 21 -k AGT 
- -t 1.721012685 -s 10 -d -1 -p tcp -e 1540 -c 2 -a 0 -i 21 -k AGT
h -t 1.721012685 -s 10 -d -1 -p tcp -e 1540 -c 2 -a 0 -i 21 -k AGT
+ -t 1.721012685 -s 10 -d 9 -p tcp -e 1560 -c 2 -a 0 -i 21 -k RTR 
- -t 1.721012685 -s 10 -d 9 -p tcp -e 1560 -c 2 -a 0 -i 21 -k RTR
h -t 1.721012685 -s 10 -d 9 -p tcp -e 1560 -c 2 -a 0 -i 21 -k RTR
+ -t 1.721012685 -s 10 -d -1 -p tcp -e 1540 -c 2 -a 0 -i 22 -k AGT 
- -t 1.721012685 -s 10 -d -1 -p tcp -e 1540 -c 2 -a 0 -i 22 -k AGT
h -t 1.721012685 -s 10 -d -1 -p tcp -e 1540 -c 2 -a 0 -i 22 -k AGT
+ -t 1.721012685 -s 10 -d 9 -p tcp -e 1560 -c 2 -a 0 -i 22 -k RTR 
- -t 1.721012685 -s 10 -d 9 -p tcp -e 1560 -c 2 -a 0 -i 22 -k RTR
h -t 1.721012685 -s 10 -d 9 -p tcp -e 1560 -c 2 -a 0 -i 22 -k RTR
r -t 1.721302293 -s 9 -d -1 -p ACK -e 38 -c 2 -a 0 -i 0 -k MAC
+ -t 1.721571685 -s 10 -d -1 -p RTS -e 44 -c 2 -a 0 -i 0 -k MAC 
- -t 1.721571685 -s 10 -d -1 -p RTS -e 44 -c 2 -a 0 -i 0 -k MAC
h -t 1.721571685 -s 10 -d -1 -p RTS -e 44 -c 2 -a 0 -i 0 -k MAC
r -t 1.721924293 -s 9 -d -1 -p RTS -e 44 -c 2 -a 0 -i 0 -k MAC
+ -t 1.721934293 -s 9 -d -1 -p CTS -e 38 -c 2 -a 0 -i 0 -k MAC 
- -t 1.721934293 -s 9 -d -1 -p CTS -e 38 -c 2 -a 0 -i 0 -k MAC
h -t 1.721934293 -s 9 -d -1 -p CTS -e 38 -c 2 -a 0 -i 0 -k MAC
r -t 1.722238901 -s 10 -d -1 -p CTS -e 38 -c 2 -a 0 -i 0 -k MAC
+ -t 1.722248901 -s 10 -d 9 -p tcp -e 1618 -c 2 -a 0 -i 18 -k MAC 
- -t 1.722248901 -s 10 -d 9 -p tcp -e 1618 -c 2 -a 0 -i 18 -k MAC
h -t 1.722248901 -s 10 -d 9 -p tcp -e 1618 -c 2 -a 0 -i 18 -k MAC
r -t 1.735193509 -s 9 -d 9 -p tcp -e 1560 -c 2 -a 0 -i 18 -k MAC
+ -t 1.735203509 -s 9 -d -1 -p ACK -e 38 -c 2 -a 0 -i 0 -k MAC 
- -t 1.735203509 -s 9 -d -1 -p ACK -e 38 -c 2 -a 0 -i 0 -k MAC
h -t 1.735203509 -s 9 -d -1 -p ACK -e 38 -c 2 -a 0 -i 0 -k MAC
r -t 1.735218509 -s 9 -d 9 -p tcp -e 1560 -c 2 -a 0 -i 18 -k AGT
+ -t 1.735218509 -s 9 -d -1 -p ack -e 40 -c 2 -a 0 -i 23 -k AGT 
- -t 1.735218509 -s 9 -d -1 -p ack -e 40 -c 2 -a 0 -i 23 -k AGT
h -t 1.735218509 -s 9 -d -1 -p ack -e 40 -c 2 -a 0 -i 23 -k AGT
+ -t 1.735218509 -s 9 -d 10 -p ack -e 60 -c 2 -a 0 -i 23 -k RTR 
- -t 1.735218509 -s 9 -d 10 -p ack -e 60 -c 2 -a 0 -i 23 -k RTR
h -t 1.735218509 -s 9 -d 10 -p ack -e 60 -c 2 -a 0 -i 23 -k RTR
r -t 1.735508117 -s 10 -d -1 -p ACK -e 38 -c 2 -a 0 -i 0 -k MAC
+ -t 1.735698117 -s 10 -d -1 -p RTS -e 44 -c 2 -a 0 -i 0 -k MAC 
- -t 1.735698117 -s 10 -d -1 -p RTS -e 44 -c 2 -a 0 -i 0 -k MAC
h -t 1.735698117 -s 10 -d -1 -p RTS -e 44 -c 2 -a 0 -i 0 -k MAC
r -t 1.736050725 -s 9 -d -1 -p RTS -e 44 -c 2 -a 0 -i 0 -k MAC
+ -t 1.736060725 -s 9 -d -1 -p CTS -e 38 -c 2 -a 0 -i 0 -k MAC 
- -t 1.736060725 -s 9 -d -1 -p CTS -e 38 -c 2 -a 0 -i 0 -k MAC
h -t 1.736060725 -s 9 -d -1 -p CTS -e 38 -c 2 -a 0 -i 0 -k MAC
r -t 1.736365333 -s 10 -d -1 -p CTS -e 38 -c 2 -a 0 -i 0 -k MAC
+ -t 1.736375333 -s 10 -d 9 -p tcp -e 1618 -c 2 -a 0 -i 19 -k MAC 
- -t 1.736375333 -s 10 -d 9 -p tcp -e 1618 -c 2 -a 0 -i 19 -k MAC
h -t 1.736375333 -s 10 -d 9 -p tcp -e 1618 -c 2 -a 0 -i 19 -k MAC
r -t 1.749319941 -s 9 -d 9 -p tcp -e 1560 -c 2 -a 0 -i 19 -k MAC
+ -t 1.749329941 -s 9 -d -1 -p ACK -e 38 -c 2 -a 0 -i 0 -k MAC 
- -t 1.749329941 -s 9 -d -1 -p ACK -e 38 -c 2 -a 0 -i 0 -k MAC
h -t 1.749329941 -s 9 -d -1 -p ACK -e 38 -c 2 -a 0 -i 0 -k MAC
r -t 1.749344941 -s 9 -d 9 -p tcp -e 1560 -c 2 -a 0 -i 19 -k AGT
+ -t 1.749344941 -s 9 -d -1 -p ack -e 40 -c 2 -a 0 -i 24 -k AGT 
- -t 1.749344941 -s 9 -d -1 -p ack -e 40 -c 2 -a 0 -i 24 -k AGT
h -t 1.749344941 -s 9 -d -1 -p ack -e 40 -c 2 -a 0 -i 24 -k AGT
+ -t 1.749344941 -s 9 -d 10 -p ack -e 60 -c 2 -a 0 -i 24 -k RTR 
- -t 1.749344941 -s 9 -d 10 -p ack -e 60 -c 2 -a 0 -i 24 -k RTR
h -t 1.749344941 -s 9 -d 10 -p ack -e 60 -c 2 -a 0 -i 24 -k RTR
r -t 1.749634549 -s 10 -d -1 -p ACK -e 38 -c 2 -a 0 -i 0 -k MAC
+ -t 1.749903941 -s 9 -d -1 -p RTS -e 44 -c 2 -a 0 -i 0 -k MAC 
- -t 1.749903941 -s 9 -d -1 -p RTS -e 44 -c 2 -a 0 -i 0 -k MAC
h -t 1.749903941 -s 9 -d -1 -p RTS -e 44 -c 2 -a 0 -i 0 -k MAC
r -t 1.750256549 -s 10 -d -1 -p RTS -e 44 -c 2 -a 0 -i 0 -k MAC
+ -t 1.750266549 -s 10 -d -1 -p CTS -e 38 -c 2 -a 0 -i 0 -k MAC 
- -t 1.750266549 -s 10 -d -1 -p CTS -e 38 -c 2 -a 0 -i 0 -k MAC
h -t 1.750266549 -s 10 -d -1 -p CTS -e 38 -c 2 -a 0 -i 0 -k MAC
r -t 1.750571157 -s 9 -d -1 -p CTS -e 38 -c 2 -a 0 -i 0 -k MAC
+ -t 1.750581157 -s 9 -d 10 -p ack -e 118 -c 2 -a 0 -i 23 -k MAC 
- -t 1.750581157 -s 9 -d 10 -p ack -e 118 -c 2 -a 0 -i 23 -k MAC
h -t 1.750581157 -s 9 -d 10 -p ack -e 118 -c 2 -a 0 -i 23 -k MAC
r -t 1.751525766 -s 10 -d 10 -p ack -e 60 -c 2 -a 0 -i 23 -k MAC
+ -t 1.751535766 -s 10 -d -1 -p ACK -e 38 -c 2 -a 0 -i 0 -k MAC 
- -t 1.751535766 -s 10 -d -1 -p ACK -e 38 -c 2 -a 0 -i 0 -k MAC
h -t 1.751535766 -s 10 -d -1 -p ACK -e 38 -c 2 -a 0 -i 0 -k MAC
r -t 1.751550766 -s 10 -d 10 -p ack -e 60 -c 2 -a 0 -i 23 -k AGT
+ -t 1.751550766 -s 10 -d -1 -p tcp -e 1540 -c 2 -a 0 -i 25 -k AGT 
- -t 1.751550766 -s 10 -d -1 -p tcp -e 1540 -c 2 -a 0 -i 25 -k AGT
h -t 1.751550766 -s 10 -d -1 -p tcp -e 1540 -c 2 -a 0 -i 25 -k AGT
+ -t 1.751550766 -s 10 -d 9 -p tcp -e 1560 -c 2 -a 0 -i 25 -k RTR 
- -t 1.751550766 -s 10 -d 9 -p tcp -e 1560 -c 2 -a 0 -i 25 -k RTR
h -t 1.751550766 -s 10 -d 9 -p tcp -e 1560 -c 2 -a 0 -i 25 -k RTR
+ -t 1.751550766 -s 10 -d -1 -p tcp -e 1540 -c 2 -a 0 -i 26 -k AGT 
- -t 1.751550766 -s 10 -d -1 -p tcp -e 1540 -c 2 -a 0 -i 26 -k AGT
h -t 1.751550766 -s 10 -d -1 -p tcp -e 1540 -c 2 -a 0 -i 26 -k AGT
+ -t 1.751550766 -s 10 -d 9 -p tcp -e 1560 -c 2 -a 0 -i 26 -k RTR 
- -t 1.751550766 -s 10 -d 9 -p tcp -e 1560 -c 2 -a 0 -i 26 -k RTR
h -t 1.751550766 -s 10 -d 9 -p tcp -e 1560 -c 2 -a 0 -i 26 -k RTR
r -t 1.751840374 -s 9 -d -1 -p ACK -e 38 -c 2 -a 0 -i 0 -k MAC
+ -t 1.752129766 -s 10 -d -1 -p RTS -e 44 -c 2 -a 0 -i 0 -k MAC 
- -t 1.752129766 -s 10 -d -1 -p RTS -e 44 -c 2 -a 0 -i 0 -k MAC
h -t 1.752129766 -s 10 -d -1 -p RTS -e 44 -c 2 -a 0 -i 0 -k MAC
r -t 1.752482374 -s 9 -d -1 -p RTS -e 44 -c 2 -a 0 -i 0 -k MAC
+ -t 1.752492374 -s 9 -d -1 -p CTS -e 38 -c 2 -a 0 -i 0 -k MAC 
- -t 1.752492374 -s 9 -d -1 -p CTS -e 38 -c 2 -a 0 -i 0 -k MAC
h -t 1.752492374 -s 9 -d -1 -p CTS -e 38 -c 2 -a 0 -i 0 -k MAC
r -t 1.752796982 -s 10 -d -1 -p CTS -e 38 -c 2 -a 0 -i 0 -k MAC
+ -t 1.752806982 -s 10 -d 9 -p tcp -e 1618 -c 2 -a 0 -i 21 -k MAC 
- -t 1.752806982 -s 10 -d 9 -p tcp -e 1618 -c 2 -a 0 -i 21 -k MAC
h -t 1.752806982 -s 10 -d 9 -p tcp -e 1618 -c 2 -a 0 -i 21 -k MAC
r -t 1.765751591 -s 9 -d 9 -p tcp -e 1560 -c 2 -a 0 -i 21 -k MAC
+ -t 1.765761591 -s 9 -d -1 -p ACK -e 38 -c 2 -a 0 -i 0 -k MAC 
- -t 1.765761591 -s 9 -d -1 -p ACK -e 38 -c 2 -a 0 -i 0 -k MAC
h -t 1.765761591 -s 9 -d -1 -p ACK -e 38 -c 2 -a 0 -i 0 -k MAC
r -t 1.765776591 -s 9 -d 9 -p tcp -e 1560 -c 2 -a 0 -i 21 -k AGT
+ -t 1.765776591 -s 9 -d -1 -p ack -e 40 -c 2 -a 0 -i 27 -k AGT 
- -t 1.765776591 -s 9 -d -1 -p ack -e 40 -c 2 -a 0 -i 27 -k AGT
h -t 1.765776591 -s 9 -d -1 -p ack -e 40 -c 2 -a 0 -i 27 -k AGT
+ -t 1.765776591 -s 9 -d 10 -p ack -e 60 -c 2 -a 0 -i 27 -k RTR 
- -t 1.765776591 -s 9 -d 10 -p ack -e 60 -c 2 -a 0 -i 27 -k RTR
h -t 1.765776591 -s 9 -d 10 -p ack -e 60 -c 2 -a 0 -i 27 -k RTR
r -t 1.766066199 -s 10 -d -1 -p ACK -e 38 -c 2 -a 0 -i 0 -k MAC
+ -t 1.766235591 -s 9 -d -1 -p RTS -e 44 -c 2 -a 0 -i 0 -k MAC 
- -t 1.766235591 -s 9 -d -1 -p RTS -e 44 -c 2 -a 0 -i 0 -k MAC
h -t 1.766235591 -s 9 -d -1 -p RTS -e 44 -c 2 -a 0 -i 0 -k MAC
r -t 1.766588199 -s 10 -d -1 -p RTS -e 44 -c 2 -a 0 -i 0 -k MAC
+ -t 1.766598199 -s 10 -d -1 -p CTS -e 38 -c 2 -a 0 -i 0 -k MAC 