n -t * -s 0  -x 995 -y 556 -Z 0 -z 30  -v circle -c green
n -t * -s 1  -x 482 -y 637 -Z 0 -z 30  -v circle -c green
n -t * -s 2  -x 549 -y 950 -Z 0 -z 30  -v circle -c green
n -t * -s 3  -x 708 -y 473 -Z 0 -z 30  -v circle -c green
n -t * -s 4  -x 233 -y 949 -Z 0 -z 30  -v circle -c green
n -t * -s 5  -x 354 -y 555 -Z 0 -z 30  -v circle -c green
n -t * -s 6  -x 432 -y 362 -Z 0 -z 30  -v circle -c green
n -t * -s 7  -x 587 -y 512 -Z 0 -z 30  -v circle -c green
n -t * -s 8  -x 456 -y 471 -Z 0 -z 30  -v circle -c green
n -t * -s 9  -x 248 -y 174 -Z 0 -z 30  -v circle -c green
n -t * -s 10  -x 388 -y 272 -Z 0 -z 30  -v circle -c green
n -t * -s 11  -x 475 -y 985 -Z 0 -z 30  -v circle -c green
V -t * -v 1.0a5 -a 0
W -t * -x 1000 -y 1000
A -t * -n 1 -p 0 -o 0xffffffff -c 31 -a 1
A -t * -h 1 -m 2147483647 -s 0
n -t 0.000000 -s 1 -x 482.000000 -y 637.000000 -U 0.741025 -V -24.989015 -T 24.290673
n -t 0.000000 -s 4 -x 233.000000 -y 949.000000 -U 0.737932 -V -4.945246 -T 90.794273
n -t 0.000000 -s 5 -x 354.000000 -y 555.000000 -U -17.365367 -V -24.463116 -T 14.511643
n -t 0.000000 -s 8 -x 456.000000 -y 471.000000 -U -14.742378 -V -20.190648 -T 21.841795
n -t 0.000000 -s 11 -x 475.000000 -y 985.000000 -U 0.130845 -V -4.998288 -T 191.065434
n -t 0.500000 -s 0 -x 995.000000 -y 556.000000 -U -22.964628 -V -9.880580 -T 25.909411
n -t 0.500000 -s 3 -x 708.000000 -y 473.000000 -U -24.761767 -V -7.928109 -T 9.207744
n -t 0.500000 -s 6 -x 432.000000 -y 362.000000 -U -13.816577 -V 9.904655 -T 24.029106
n -t 0.500000 -s 7 -x 587.000000 -y 512.000000 -U 11.759304 -V -22.061704 -T 9.609412
n -t 0.500000 -s 10 -x 388.000000 -y 272.000000 -U 23.745433 -V 10.590298 -T 12.086535
v -t 0.5 -e sim_annotation 0.5 1 Starting CBR0 node0 to node1
v -t 0.5 -e sim_annotation 0.5 2 Starting CBR1 node10 to node9
n -t 0.700000 -s 2 -x 549.000000 -y 950.000000 -U -1.151030 -V -19.966851 -T 42.570559
n -t 0.700000 -s 9 -x 248.000000 -y 174.000000 -U 13.833688 -V 14.443998 -T 29.493220
+ -t 1.000000000 -s 0 -d -1 -p tcp -e 40 -c 2 -a 0 -i 0 -k AGT 
- -t 1.000000000 -s 0 -d -1 -p tcp -e 40 -c 2 -a 0 -i 0 -k AGT
h -t 1.000000000 -s 0 -d -1 -p tcp -e 40 -c 2 -a 0 -i 0 -k AGT
+ -t 1.000000000 -s 10 -d -1 -p tcp -e 40 -c 2 -a 0 -i 2 -k AGT 
- -t 1.000000000 -s 10 -d -1 -p tcp -e 40 -c 2 -a 0 -i 2 -k AGT
h -t 1.000000000 -s 10 -d -1 -p tcp -e 40 -c 2 -a 0 -i 2 -k AGT
+ -t 1.003034721 -s 0 -d -1 -p DSR -e 32 -c 2 -a 0 -i 1 -k RTR 
- -t 1.003034721 -s 0 -d -1 -p DSR -e 32 -c 2 -a 0 -i 1 -k RTR
h -t 1.003034721 -s 0 -d -1 -p DSR -e 32 -c 2 -a 0 -i 1 -k RTR
+ -t 1.003212547 -s 10 -d -1 -p DSR -e 32 -c 2 -a 0 -i 3 -k RTR 
- -t 1.003212547 -s 10 -d -1 -p DSR -e 32 -c 2 -a 0 -i 3 -k RTR
h -t 1.003212547 -s 10 -d -1 -p DSR -e 32 -c 2 -a 0 -i 3 -k RTR
+ -t 1.003609721 -s 0 -d -1 -p DSR -e 90 -c 2 -a 0 -i 1 -k MAC 
- -t 1.003609721 -s 0 -d -1 -p DSR -e 90 -c 2 -a 0 -i 1 -k MAC
h -t 1.003609721 -s 0 -d -1 -p DSR -e 90 -c 2 -a 0 -i 1 -k MAC
+ -t 1.003847547 -s 10 -d -1 -p DSR -e 90 -c 2 -a 0 -i 3 -k MAC 
- -t 1.003847547 -s 10 -d -1 -p DSR -e 90 -c 2 -a 0 -i 3 -k MAC
h -t 1.003847547 -s 10 -d -1 -p DSR -e 90 -c 2 -a 0 -i 3 -k MAC
r -t 1.004567857 -s 6 -d -1 -p DSR -e 32 -c 2 -a 0 -i 3 -k MAC
r -t 1.004568139 -s 9 -d -1 -p DSR -e 32 -c 2 -a 0 -i 3 -k MAC
r -t 1.004568141 -s 8 -d -1 -p DSR -e 32 -c 2 -a 0 -i 3 -k MAC
+ -t 1.009021959 -s 9 -d 10 -p DSR -e 44 -c 2 -a 0 -i 4 -k RTR 
- -t 1.009021959 -s 9 -d 10 -p DSR -e 44 -c 2 -a 0 -i 4 -k RTR
h -t 1.009021959 -s 9 -d 10 -p DSR -e 44 -c 2 -a 0 -i 4 -k RTR
+ -t 1.009676959 -s 9 -d -1 -p ARP -e 86 -c 2 -a 0 -i 0 -k MAC 
- -t 1.009676959 -s 9 -d -1 -p ARP -e 86 -c 2 -a 0 -i 0 -k MAC
h -t 1.009676959 -s 9 -d -1 -p ARP -e 86 -c 2 -a 0 -i 0 -k MAC
r -t 1.010365552 -s 10 -d -1 -p ARP -e 28 -c 2 -a 0 -i 0 -k MAC
+ -t 1.010660552 -s 10 -d -1 -p RTS -e 44 -c 2 -a 0 -i 0 -k MAC 
- -t 1.010660552 -s 10 -d -1 -p RTS -e 44 -c 2 -a 0 -i 0 -k MAC
h -t 1.010660552 -s 10 -d -1 -p RTS -e 44 -c 2 -a 0 -i 0 -k MAC
r -t 1.011013145 -s 9 -d -1 -p RTS -e 44 -c 2 -a 0 -i 0 -k MAC
+ -t 1.011023145 -s 9 -d -1 -p CTS -e 38 -c 2 -a 0 -i 0 -k MAC 
- -t 1.011023145 -s 9 -d -1 -p CTS -e 38 -c 2 -a 0 -i 0 -k MAC
h -t 1.011023145 -s 9 -d -1 -p CTS -e 38 -c 2 -a 0 -i 0 -k MAC
r -t 1.011327738 -s 10 -d -1 -p CTS -e 38 -c 2 -a 0 -i 0 -k MAC
+ -t 1.011337738 -s 10 -d -1 -p ARP -e 86 -c 2 -a 0 -i 0 -k MAC 
- -t 1.011337738 -s 10 -d -1 -p ARP -e 86 -c 2 -a 0 -i 0 -k MAC
h -t 1.011337738 -s 10 -d -1 -p ARP -e 86 -c 2 -a 0 -i 0 -k MAC
r -t 1.012026331 -s 9 -d -1 -p ARP -e 28 -c 2 -a 0 -i 0 -k MAC
+ -t 1.012036331 -s 9 -d -1 -p ACK -e 38 -c 2 -a 0 -i 0 -k MAC 
- -t 1.012036331 -s 9 -d -1 -p ACK -e 38 -c 2 -a 0 -i 0 -k MAC
h -t 1.012036331 -s 9 -d -1 -p ACK -e 38 -c 2 -a 0 -i 0 -k MAC
r -t 1.012340924 -s 10 -d -1 -p ACK -e 38 -c 2 -a 0 -i 0 -k MAC
+ -t 1.012750331 -s 9 -d -1 -p RTS -e 44 -c 2 -a 0 -i 0 -k MAC 
- -t 1.012750331 -s 9 -d -1 -p RTS -e 44 -c 2 -a 0 -i 0 -k MAC
h -t 1.012750331 -s 9 -d -1 -p RTS -e 44 -c 2 -a 0 -i 0 -k MAC
r -t 1.013102924 -s 10 -d -1 -p RTS -e 44 -c 2 -a 0 -i 0 -k MAC
+ -t 1.013112924 -s 10 -d -1 -p CTS -e 38 -c 2 -a 0 -i 0 -k MAC 
- -t 1.013112924 -s 10 -d -1 -p CTS -e 38 -c 2 -a 0 -i 0 -k MAC
h -t 1.013112924 -s 10 -d -1 -p CTS -e 38 -c 2 -a 0 -i 0 -k MAC
r -t 1.013417517 -s 9 -d -1 -p CTS -e 38 -c 2 -a 0 -i 0 -k MAC
+ -t 1.013427517 -s 9 -d 10 -p DSR -e 102 -c 2 -a 0 -i 4 -k MAC 
- -t 1.013427517 -s 9 -d 10 -p DSR -e 102 -c 2 -a 0 -i 4 -k MAC
h -t 1.013427517 -s 9 -d 10 -p DSR -e 102 -c 2 -a 0 -i 4 -k MAC
r -t 1.014244110 -s 10 -d 10 -p DSR -e 44 -c 2 -a 0 -i 4 -k MAC
+ -t 1.014254110 -s 10 -d -1 -p ACK -e 38 -c 2 -a 0 -i 0 -k MAC 
- -t 1.014254110 -s 10 -d -1 -p ACK -e 38 -c 2 -a 0 -i 0 -k MAC
h -t 1.014254110 -s 10 -d -1 -p ACK -e 38 -c 2 -a 0 -i 0 -k MAC
+ -t 1.014269110 -s 10 -d 9 -p tcp -e 76 -c 2 -a 0 -i 2 -k RTR 
- -t 1.014269110 -s 10 -d 9 -p tcp -e 76 -c 2 -a 0 -i 2 -k RTR
h -t 1.014269110 -s 10 -d 9 -p tcp -e 76 -c 2 -a 0 -i 2 -k RTR
r -t 1.014558703 -s 9 -d -1 -p ACK -e 38 -c 2 -a 0 -i 0 -k MAC
+ -t 1.015168110 -s 10 -d -1 -p RTS -e 44 -c 2 -a 0 -i 0 -k MAC 
- -t 1.015168110 -s 10 -d -1 -p RTS -e 44 -c 2 -a 0 -i 0 -k MAC
h -t 1.015168110 -s 10 -d -1 -p RTS -e 44 -c 2 -a 0 -i 0 -k MAC
r -t 1.015520703 -s 9 -d -1 -p RTS -e 44 -c 2 -a 0 -i 0 -k MAC
+ -t 1.015530703 -s 9 -d -1 -p CTS -e 38 -c 2 -a 0 -i 0 -k MAC 
- -t 1.015530703 -s 9 -d -1 -p CTS -e 38 -c 2 -a 0 -i 0 -k MAC
h -t 1.015530703 -s 9 -d -1 -p CTS -e 38 -c 2 -a 0 -i 0 -k MAC
r -t 1.015835296 -s 10 -d -1 -p CTS -e 38 -c 2 -a 0 -i 0 -k MAC
+ -t 1.015845296 -s 10 -d 9 -p tcp -e 134 -c 2 -a 0 -i 2 -k MAC 
- -t 1.015845296 -s 10 -d 9 -p tcp -e 134 -c 2 -a 0 -i 2 -k MAC
h -t 1.015845296 -s 10 -d 9 -p tcp -e 134 -c 2 -a 0 -i 2 -k MAC
r -t 1.016917889 -s 9 -d 9 -p tcp -e 76 -c 2 -a 0 -i 2 -k MAC
+ -t 1.016927889 -s 9 -d -1 -p ACK -e 38 -c 2 -a 0 -i 0 -k MAC 
- -t 1.016927889 -s 9 -d -1 -p ACK -e 38 -c 2 -a 0 -i 0 -k MAC
h -t 1.016927889 -s 9 -d -1 -p ACK -e 38 -c 2 -a 0 -i 0 -k MAC
r -t 1.016942889 -s 9 -d 9 -p tcp -e 40 -c 2 -a 0 -i 2 -k AGT
+ -t 1.016942889 -s 9 -d -1 -p ack -e 40 -c 2 -a 0 -i 6 -k AGT 
- -t 1.016942889 -s 9 -d -1 -p ack -e 40 -c 2 -a 0 -i 6 -k AGT
h -t 1.016942889 -s 9 -d -1 -p ack -e 40 -c 2 -a 0 -i 6 -k AGT
+ -t 1.016942889 -s 9 -d 10 -p ack -e 76 -c 2 -a 0 -i 6 -k RTR 
- -t 1.016942889 -s 9 -d 10 -p ack -e 76 -c 2 -a 0 -i 6 -k RTR
h -t 1.016942889 -s 9 -d 10 -p ack -e 76 -c 2 -a 0 -i 6 -k RTR
r -t 1.017232482 -s 10 -d -1 -p ACK -e 38 -c 2 -a 0 -i 0 -k MAC
+ -t 1.017761889 -s 9 -d -1 -p RTS -e 44 -c 2 -a 0 -i 0 -k MAC 
- -t 1.017761889 -s 9 -d -1 -p RTS -e 44 -c 2 -a 0 -i 0 -k MAC
h -t 1.017761889 -s 9 -d -1 -p RTS -e 44 -c 2 -a 0 -i 0 -k MAC
r -t 1.018114482 -s 10 -d -1 -p RTS -e 44 -c 2 -a 0 -i 0 -k MAC
+ -t 1.018124482 -s 10 -d -1 -p CTS -e 38 -c 2 -a 0 -i 0 -k MAC 
- -t 1.018124482 -s 10 -d -1 -p CTS -e 38 -c 2 -a 0 -i 0 -k MAC
h -t 1.018124482 -s 10 -d -1 -p CTS -e 38 -c 2 -a 0 -i 0 -k MAC
r -t 1.018429075 -s 9 -d -1 -p CTS -e 38 -c 2 -a 0 -i 0 -k MAC
+ -t 1.018439075 -s 9 -d 10 -p ack -e 134 -c 2 -a 0 -i 6 -k MAC 
- -t 1.018439075 -s 9 -d 10 -p ack -e 134 -c 2 -a 0 -i 6 -k MAC
h -t 1.018439075 -s 9 -d 10 -p ack -e 134 -c 2 -a 0 -i 6 -k MAC
r -t 1.019511668 -s 10 -d 10 -p ack -e 76 -c 2 -a 0 -i 6 -k MAC
+ -t 1.019521668 -s 10 -d -1 -p ACK -e 38 -c 2 -a 0 -i 0 -k MAC 
- -t 1.019521668 -s 10 -d -1 -p ACK -e 38 -c 2 -a 0 -i 0 -k MAC
h -t 1.019521668 -s 10 -d -1 -p ACK -e 38 -c 2 -a 0 -i 0 -k MAC
r -t 1.019536668 -s 10 -d 10 -p ack -e 40 -c 2 -a 0 -i 6 -k AGT
+ -t 1.019536668 -s 10 -d -1 -p tcp -e 1540 -c 2 -a 0 -i 7 -k AGT 
- -t 1.019536668 -s 10 -d -1 -p tcp -e 1540 -c 2 -a 0 -i 7 -k AGT
h -t 1.019536668 -s 10 -d -1 -p tcp -e 1540 -c 2 -a 0 -i 7 -k AGT
+ -t 1.019536668 -s 10 -d -1 -p tcp -e 1540 -c 2 -a 0 -i 8 -k AGT 
- -t 1.019536668 -s 10 -d -1 -p tcp -e 1540 -c 2 -a 0 -i 8 -k AGT
h -t 1.019536668 -s 10 -d -1 -p tcp -e 1540 -c 2 -a 0 -i 8 -k AGT
+ -t 1.019536668 -s 10 -d 9 -p tcp -e 1576 -c 2 -a 0 -i 7 -k RTR 
- -t 1.019536668 -s 10 -d 9 -p tcp -e 1576 -c 2 -a 0 -i 7 -k RTR
h -t 1.019536668 -s 10 -d 9 -p tcp -e 1576 -c 2 -a 0 -i 7 -k RTR
+ -t 1.019536668 -s 10 -d 9 -p tcp -e 1576 -c 2 -a 0 -i 8 -k RTR 
- -t 1.019536668 -s 10 -d 9 -p tcp -e 1576 -c 2 -a 0 -i 8 -k RTR
h -t 1.019536668 -s 10 -d 9 -p tcp -e 1576 -c 2 -a 0 -i 8 -k RTR
r -t 1.019826261 -s 9 -d -1 -p ACK -e 38 -c 2 -a 0 -i 0 -k MAC
+ -t 1.020295668 -s 10 -d -1 -p RTS -e 44 -c 2 -a 0 -i 0 -k MAC 
- -t 1.020295668 -s 10 -d -1 -p RTS -e 44 -c 2 -a 0 -i 0 -k MAC
h -t 1.020295668 -s 10 -d -1 -p RTS -e 44 -c 2 -a 0 -i 0 -k MAC
r -t 1.020648261 -s 9 -d -1 -p RTS -e 44 -c 2 -a 0 -i 0 -k MAC
+ -t 1.020658261 -s 9 -d -1 -p CTS -e 38 -c 2 -a 0 -i 0 -k MAC 
- -t 1.020658261 -s 9 -d -1 -p CTS -e 38 -c 2 -a 0 -i 0 -k MAC
h -t 1.020658261 -s 9 -d -1 -p CTS -e 38 -c 2 -a 0 -i 0 -k MAC
r -t 1.020962854 -s 10 -d -1 -p CTS -e 38 -c 2 -a 0 -i 0 -k MAC
+ -t 1.020972854 -s 10 -d 9 -p tcp -e 1634 -c 2 -a 0 -i 7 -k MAC 
- -t 1.020972854 -s 10 -d 9 -p tcp -e 1634 -c 2 -a 0 -i 7 -k MAC
h -t 1.020972854 -s 10 -d 9 -p tcp -e 1634 -c 2 -a 0 -i 7 -k MAC
r -t 1.034045447 -s 9 -d 9 -p tcp -e 1576 -c 2 -a 0 -i 7 -k MAC
+ -t 1.034055447 -s 9 -d -1 -p ACK -e 38 -c 2 -a 0 -i 0 -k MAC 
- -t 1.034055447 -s 9 -d -1 -p ACK -e 38 -c 2 -a 0 -i 0 -k MAC
h -t 1.034055447 -s 9 -d -1 -p ACK -e 38 -c 2 -a 0 -i 0 -k MAC
r -t 1.034070447 -s 9 -d 9 -p tcp -e 1540 -c 2 -a 0 -i 7 -k AGT
+ -t 1.034070447 -s 9 -d -1 -p ack -e 40 -c 2 -a 0 -i 10 -k AGT 
- -t 1.034070447 -s 9 -d -1 -p ack -e 40 -c 2 -a 0 -i 10 -k AGT
h -t 1.034070447 -s 9 -d -1 -p ack -e 40 -c 2 -a 0 -i 10 -k AGT
+ -t 1.034070447 -s 9 -d 10 -p ack -e 76 -c 2 -a 0 -i 10 -k RTR 
- -t 1.034070447 -s 9 -d 10 -p ack -e 76 -c 2 -a 0 -i 10 -k RTR
h -t 1.034070447 -s 9 -d 10 -p ack -e 76 -c 2 -a 0 -i 10 -k RTR
r -t 1.034360041 -s 10 -d -1 -p ACK -e 38 -c 2 -a 0 -i 0 -k MAC
+ -t 1.034569447 -s 9 -d -1 -p RTS -e 44 -c 2 -a 0 -i 0 -k MAC 
- -t 1.034569447 -s 9 -d -1 -p RTS -e 44 -c 2 -a 0 -i 0 -k MAC
h -t 1.034569447 -s 9 -d -1 -p RTS -e 44 -c 2 -a 0 -i 0 -k MAC
r -t 1.034922041 -s 10 -d -1 -p RTS -e 44 -c 2 -a 0 -i 0 -k MAC
+ -t 1.034932041 -s 10 -d -1 -p CTS -e 38 -c 2 -a 0 -i 0 -k MAC 
- -t 1.034932041 -s 10 -d -1 -p CTS -e 38 -c 2 -a 0 -i 0 -k MAC
h -t 1.034932041 -s 10 -d -1 -p CTS -e 38 -c 2 -a 0 -i 0 -k MAC
r -t 1.035236634 -s 9 -d -1 -p CTS -e 38 -c 2 -a 0 -i 0 -k MAC
+ -t 1.035246634 -s 9 -d 10 -p ack -e 134 -c 2 -a 0 -i 10 -k MAC 
- -t 1.035246634 -s 9 -d 10 -p ack -e 134 -c 2 -a 0 -i 10 -k MAC
h -t 1.035246634 -s 9 -d 10 -p ack -e 134 -c 2 -a 0 -i 10 -k MAC
r -t 1.036319227 -s 10 -d 10 -p ack -e 76 -c 2 -a 0 -i 10 -k MAC
+ -t 1.036329227 -s 10 -d -1 -p ACK -e 38 -c 2 -a 0 -i 0 -k MAC 
- -t 1.036329227 -s 10 -d -1 -p ACK -e 38 -c 2 -a 0 -i 0 -k MAC
h -t 1.036329227 -s 10 -d -1 -p ACK -e 38 -c 2 -a 0 -i 0 -k MAC
r -t 1.036344227 -s 10 -d 10 -p ack -e 40 -c 2 -a 0 -i 10 -k AGT
+ -t 1.036344227 -s 10 -d -1 -p tcp -e 1540 -c 2 -a 0 -i 11 -k AGT 
- -t 1.036344227 -s 10 -d -1 -p tcp -e 1540 -c 2 -a 0 -i 11 -k AGT
h -t 1.036344227 -s 10 -d -1 -p tcp -e 1540 -c 2 -a 0 -i 11 -k AGT
+ -t 1.036344227 -s 10 -d -1 -p tcp -e 1540 -c 2 -a 0 -i 12 -k AGT 
- -t 1.036344227 -s 10 -d -1 -p tcp -e 1540 -c 2 -a 0 -i 12 -k AGT
h -t 1.036344227 -s 10 -d -1 -p tcp -e 1540 -c 2 -a 0 -i 12 -k AGT
+ -t 1.036344227 -s 10 -d 9 -p tcp -e 1560 -c 2 -a 0 -i 11 -k RTR 
- -t 1.036344227 -s 10 -d 9 -p tcp -e 1560 -c 2 -a 0 -i 11 -k RTR
h -t 1.036344227 -s 10 -d 9 -p tcp -e 1560 -c 2 -a 0 -i 11 -k RTR
+ -t 1.036344227 -s 10 -d 9 -p tcp -e 1560 -c 2 -a 0 -i 12 -k RTR 
- -t 1.036344227 -s 10 -d 9 -p tcp -e 1560 -c 2 -a 0 -i 12 -k RTR
h -t 1.036344227 -s 10 -d 9 -p tcp -e 1560 -c 2 -a 0 -i 12 -k RTR
r -t 1.036633821 -s 9 -d -1 -p ACK -e 38 -c 2 -a 0 -i 0 -k MAC
+ -t 1.036903227 -s 10 -d -1 -p RTS -e 44 -c 2 -a 0 -i 0 -k MAC 
- -t 1.036903227 -s 10 -d -1 -p RTS -e 44 -c 2 -a 0 -i 0 -k MAC
h -t 1.036903227 -s 10 -d -1 -p RTS -e 44 -c 2 -a 0 -i 0 -k MAC
r -t 1.037255821 -s 9 -d -1 -p RTS -e 44 -c 2 -a 0 -i 0 -k MAC
+ -t 1.037265821 -s 9 -d -1 -p CTS -e 38 -c 2 -a 0 -i 0 -k MAC 
- -t 1.037265821 -s 9 -d -1 -p CTS -e 38 -c 2 -a 0 -i 0 -k MAC
h -t 1.037265821 -s 9 -d -1 -p CTS -e 38 -c 2 -a 0 -i 0 -k MAC
r -t 1.037570414 -s 10 -d -1 -p CTS -e 38 -c 2 -a 0 -i 0 -k MAC
+ -t 1.037580414 -s 10 -d 9 -p tcp -e 1634 -c 2 -a 0 -i 8 -k MAC 
- -t 1.037580414 -s 10 -d 9 -p tcp -e 1634 -c 2 -a 0 -i 8 -k MAC
h -t 1.037580414 -s 10 -d 9 -p tcp -e 1634 -c 2 -a 0 -i 8 -k MAC
+ -t 1.037900035 -s 0 -d -1 -p DSR -e 32 -c 2 -a 0 -i 9 -k RTR 
- -t 1.037900035 -s 0 -d -1 -p DSR -e 32 -c 2 -a 0 -i 9 -k RTR
h -t 1.037900035 -s 0 -d -1 -p DSR -e 32 -c 2 -a 0 -i 9 -k RTR
+ -t 1.038575035 -s 0 -d -1 -p DSR -e 90 -c 2 -a 0 -i 9 -k MAC 
- -t 1.038575035 -s 0 -d -1 -p DSR -e 90 -c 2 -a 0 -i 9 -k MAC
h -t 1.038575035 -s 0 -d -1 -p DSR -e 90 -c 2 -a 0 -i 9 -k MAC
r -t 1.050653008 -s 9 -d 9 -p tcp -e 1576 -c 2 -a 0 -i 8 -k MAC
+ -t 1.050663008 -s 9 -d -1 -p ACK -e 38 -c 2 -a 0 -i 0 -k MAC 
- -t 1.050663008 -s 9 -d -1 -p ACK -e 38 -c 2 -a 0 -i 0 -k MAC
h -t 1.050663008 -s 9 -d -1 -p ACK -e 38 -c 2 -a 0 -i 0 -k MAC
r -t 1.050678008 -s 9 -d 9 -p tcp -e 1540 -c 2 -a 0 -i 8 -k AGT
+ -t 1.050678008 -s 9 -d -1 -p ack -e 40 -c 2 -a 0 -i 13 -k AGT 
- -t 1.050678008 -s 9 -d -1 -p ack -e 40 -c 2 -a 0 -i 13 -k AGT
h -t 1.050678008 -s 9 -d -1 -p ack -e 40 -c 2 -a 0 -i 13 -k AGT
+ -t 1.050678008 -s 9 -d 10 -p ack -e 76 -c 2 -a 0 -i 13 -k RTR 
- -t 1.050678008 -s 9 -d 10 -p ack -e 76 -c 2 -a 0 -i 13 -k RTR
h -t 1.050678008 -s 9 -d 10 -p ack -e 76 -c 2 -a 0 -i 13 -k RTR
r -t 1.050967601 -s 10 -d -1 -p ACK -e 38 -c 2 -a 0 -i 0 -k MAC
+ -t 1.051217601 -s 10 -d -1 -p RTS -e 44 -c 2 -a 0 -i 0 -k MAC 
- -t 1.051217601 -s 10 -d -1 -p RTS -e 44 -c 2 -a 0 -i 0 -k MAC
h -t 1.051217601 -s 10 -d -1 -p RTS -e 44 -c 2 -a 0 -i 0 -k MAC
r -t 1.051570195 -s 9 -d -1 -p RTS -e 44 -c 2 -a 0 -i 0 -k MAC
+ -t 1.051580195 -s 9 -d -1 -p CTS -e 38 -c 2 -a 0 -i 0 -k MAC 
- -t 1.051580195 -s 9 -d -1 -p CTS -e 38 -c 2 -a 0 -i 0 -k MAC
h -t 1.051580195 -s 9 -d -1 -p CTS -e 38 -c 2 -a 0 -i 0 -k MAC
r -t 1.051884789 -s 10 -d -1 -p CTS -e 38 -c 2 -a 0 -i 0 -k MAC
+ -t 1.051894789 -s 10 -d 9 -p tcp -e 1618 -c 2 -a 0 -i 11 -k MAC 
- -t 1.051894789 -s 10 -d 9 -p tcp -e 1618 -c 2 -a 0 -i 11 -k MAC
h -t 1.051894789 -s 10 -d 9 -p tcp -e 1618 -c 2 -a 0 -i 11 -k MAC
r -t 1.064839383 -s 9 -d 9 -p tcp -e 1560 -c 2 -a 0 -i 11 -k MAC
+ -t 1.064849383 -s 9 -d -1 -p ACK -e 38 -c 2 -a 0 -i 0 -k MAC 
- -t 1.064849383 -s 9 -d -1 -p ACK -e 38 -c 2 -a 0 -i 0 -k MAC
h -t 1.064849383 -s 9 -d -1 -p ACK -e 38 -c 2 -a 0 -i 0 -k MAC
r -t 1.064864383 -s 9 -d 9 -p tcp -e 1540 -c 2 -a 0 -i 11 -k AGT
+ -t 1.064864383 -s 9 -d -1 -p ack -e 40 -c 2 -a 0 -i 14 -k AGT 
- -t 1.064864383 -s 9 -d -1 -p ack -e 40 -c 2 -a 0 -i 14 -k AGT
h -t 1.064864383 -s 9 -d -1 -p ack -e 40 -c 2 -a 0 -i 14 -k AGT
+ -t 1.064864383 -s 9 -d 10 -p ack -e 60 -c 2 -a 0 -i 14 -k RTR 
- -t 1.064864383 -s 9 -d 10 -p ack -e 60 -c 2 -a 0 -i 14 -k RTR
h -t 1.064864383 -s 9 -d 10 -p ack -e 60 -c 2 -a 0 -i 14 -k RTR
r -t 1.065153977 -s 10 -d -1 -p ACK -e 38 -c 2 -a 0 -i 0 -k MAC
+ -t 1.065283977 -s 10 -d -1 -p RTS -e 44 -c 2 -a 0 -i 0 -k MAC 
- -t 1.065283977 -s 10 -d -1 -p RTS -e 44 -c 2 -a 0 -i 0 -k MAC
h -t 1.065283977 -s 10 -d -1 -p RTS -e 44 -c 2 -a 0 -i 0 -k MAC
r -t 1.065636571 -s 9 -d -1 -p RTS -e 44 -c 2 -a 0 -i 0 -k MAC
+ -t 1.065646571 -s 9 -d -1 -p CTS -e 38 -c 2 -a 0 -i 0 -k MAC 
- -t 1.065646571 -s 9 -d -1 -p CTS -e 38 -c 2 -a 0 -i 0 -k MAC
h -t 1.065646571 -s 9 -d -1 -p CTS -e 38 -c 2 -a 0 -i 0 -k MAC
r -t 1.065951165 -s 10 -d -1 -p CTS -e 38 -c 2 -a 0 -i 0 -k MAC
+ -t 1.065961165 -s 10 -d 9 -p tcp -e 1618 -c 2 -a 0 -i 12 -k MAC 
- -t 1.065961165 -s 10 -d 9 -p tcp -e 1618 -c 2 -a 0 -i 12 -k MAC
h -t 1.065961165 -s 10 -d 9 -p tcp -e 1618 -c 2 -a 0 -i 12 -k MAC
r -t 1.078905759 -s 9 -d 9 -p tcp -e 1560 -c 2 -a 0 -i 12 -k MAC
+ -t 1.078915759 -s 9 -d -1 -p ACK -e 38 -c 2 -a 0 -i 0 -k MAC 
- -t 1.078915759 -s 9 -d -1 -p ACK -e 38 -c 2 -a 0 -i 0 -k MAC
h -t 1.078915759 -s 9 -d -1 -p ACK -e 38 -c 2 -a 0 -i 0 -k MAC
r -t 1.078930759 -s 9 -d 9 -p tcp -e 1540 -c 2 -a 0 -i 12 -k AGT
+ -t 1.078930759 -s 9 -d -1 -p ack -e 40 -c 2 -a 0 -i 16 -k AGT 
- -t 1.078930759 -s 9 -d -1 -p ack -e 40 -c 2 -a 0 -i 16 -k AGT
h -t 1.078930759 -s 9 -d -1 -p ack -e 40 -c 2 -a 0 -i 16 -k AGT
+ -t 1.078930759 -s 9 -d 10 -p ack -e 60 -c 2 -a 0 -i 16 -k RTR 
- -t 1.078930759 -s 9 -d 10 -p ack -e 60 -c 2 -a 0 -i 16 -k RTR
h -t 1.078930759 -s 9 -d 10 -p ack -e 60 -c 2 -a 0 -i 16 -k RTR
r -t 1.079220353 -s 10 -d -1 -p ACK -e 38 -c 2 -a 0 -i 0 -k MAC
+ -t 1.079369759 -s 9 -d -1 -p RTS -e 44 -c 2 -a 0 -i 0 -k MAC 
- -t 1.079369759 -s 9 -d -1 -p RTS -e 44 -c 2 -a 0 -i 0 -k MAC
h -t 1.079369759 -s 9 -d -1 -p RTS -e 44 -c 2 -a 0 -i 0 -k MAC
r -t 1.079722353 -s 10 -d -1 -p RTS -e 44 -c 2 -a 0 -i 0 -k MAC
+ -t 1.079732353 -s 10 -d -1 -p CTS -e 38 -c 2 -a 0 -i 0 -k MAC 
- -t 1.079732353 -s 10 -d -1 -p CTS -e 38 -c 2 -a 0 -i 0 -k MAC
h -t 1.079732353 -s 10 -d -1 -p CTS -e 38 -c 2 -a 0 -i 0 -k MAC
r -t 1.080036947 -s 9 -d -1 -p CTS -e 38 -c 2 -a 0 -i 0 -k MAC
+ -t 1.080046947 -s 9 -d 10 -p ack -e 134 -c 2 -a 0 -i 13 -k MAC 
- -t 1.080046947 -s 9 -d 10 -p ack -e 134 -c 2 -a 0 -i 13 -k MAC
h -t 1.080046947 -s 9 -d 10 -p ack -e 134 -c 2 -a 0 -i 13 -k MAC
r -t 1.081119542 -s 10 -d 10 -p ack -e 76 -c 2 -a 0 -i 13 -k MAC
+ -t 1.081129542 -s 10 -d -1 -p ACK -e 38 -c 2 -a 0 -i 0 -k MAC 
- -t 1.081129542 -s 10 -d -1 -p ACK -e 38 -c 2 -a 0 -i 0 -k MAC
h -t 1.081129542 -s 10 -d -1 -p ACK -e 38 -c 2 -a 0 -i 0 -k MAC
r -t 1.081144542 -s 10 -d 10 -p ack -e 40 -c 2 -a 0 -i 13 -k AGT
+ -t 1.081144542 -s 10 -d -1 -p tcp -e 1540 -c 2 -a 0 -i 17 -k AGT 
- -t 1.081144542 -s 10 -d -1 -p tcp -e 1540 -c 2 -a 0 -i 17 -k AGT
h -t 1.081144542 -s 10 -d -1 -p tcp -e 1540 -c 2 -a 0 -i 17 -k AGT
+ -t 1.081144542 -s 10 -d -1 -p tcp -e 1540 -c 2 -a 0 -i 18 -k AGT 
- -t 1.081144542 -s 10 -d -1 -p tcp -e 1540 -c 2 -a 0 -i 18 -k AGT
h -t 1.081144542 -s 10 -d -1 -p tcp -e 1540 -c 2 -a 0 -i 18 -k AGT
+ -t 1.081144542 -s 10 -d 9 -p tcp -e 1560 -c 2 -a 0 -i 17 -k RTR 
- -t 1.081144542 -s 10 -d 9 -p tcp -e 1560 -c 2 -a 0 -i 17 -k RTR
h -t 1.081144542 -s 10 -d 9 -p tcp -e 1560 -c 2 -a 0 -i 17 -k RTR
+ -t 1.081144542 -s 10 -d 9 -p tcp -e 1560 -c 2 -a 0 -i 18 -k RTR 
- -t 1.081144542 -s 10 -d 9 -p tcp -e 1560 -c 2 -a 0 -i 18 -k RTR
h -t 1.081144542 -s 10 -d 9 -p tcp -e 1560 -c 2 -a 0 -i 18 -k RTR
r -t 1.081434136 -s 9 -d -1 -p ACK -e 38 -c 2 -a 0 -i 0 -k MAC
+ -t 1.081923542 -s 10 -d -1 -p RTS -e 44 -c 2 -a 0 -i 0 -k MAC 
- -t 1.081923542 -s 10 -d -1 -p RTS -e 44 -c 2 -a 0 -i 0 -k MAC
h -t 1.081923542 -s 10 -d -1 -p RTS -e 44 -c 2 -a 0 -i 0 -k MAC
r -t 1.082276136 -s 9 -d -1 -p RTS -e 44 -c 2 -a 0 -i 0 -k MAC
+ -t 1.082286136 -s 9 -d -1 -p CTS -e 38 -c 2 -a 0 -i 0 -k MAC 
- -t 1.082286136 -s 9 -d -1 -p CTS -e 38 -c 2 -a 0 -i 0 -k MAC
h -t 1.082286136 -s 9 -d -1 -p CTS -e 38 -c 2 -a 0 -i 0 -k MAC
r -t 1.082590730 -s 10 -d -1 -p CTS -e 38 -c 2 -a 0 -i 0 -k MAC
+ -t 1.082600730 -s 10 -d 9 -p tcp -e 1618 -c 2 -a 0 -i 17 -k MAC 
- -t 1.082600730 -s 10 -d 9 -p tcp -e 1618 -c 2 -a 0 -i 17 -k MAC
h -t 1.082600730 -s 10 -d 9 -p tcp -e 1618 -c 2 -a 0 -i 17 -k MAC
r -t 1.095545325 -s 9 -d 9 -p tcp -e 1560 -c 2 -a 0 -i 17 -k MAC
+ -t 1.095555325 -s 9 -d -1 -p ACK -e 38 -c 2 -a 0 -i 0 -k MAC 
- -t 1.095555325 -s 9 -d -1 -p ACK -e 38 -c 2 -a 0 -i 0 -k MAC
h -t 1.095555325 -s 9 -d -1 -p ACK -e 38 -c 2 -a 0 -i 0 -k MAC
r -t 1.095570325 -s 9 -d 9 -p tcp -e 1540 -c 2 -a 0 -i 17 -k AGT
+ -t 1.095570325 -s 9 -d -1 -p ack -e 40 -c 2 -a 0 -i 19 -k AGT 
- -t 1.095570325 -s 9 -d -1 -p ack -e 40 -c 2 -a 0 -i 19 -k AGT
h -t 1.095570325 -s 9 -d -1 -p ack -e 40 -c 2 -a 0 -i 19 -k AGT
+ -t 1.095570325 -s 9 -d 10 -p ack -e 60 -c 2 -a 0 -i 19 -k RTR 
- -t 1.095570325 -s 9 -d 10 -p ack -e 60 -c 2 -a 0 -i 19 -k RTR
h -t 1.095570325 -s 9 -d 10 -p ack -e 60 -c 2 -a 0 -i 19 -k RTR
r -t 1.095859919 -s 10 -d -1 -p ACK -e 38 -c 2 -a 0 -i 0 -k MAC
+ -t 1.096029325 -s 9 -d -1 -p RTS -e 44 -c 2 -a 0 -i 0 -k MAC 
- -t 1.096029325 -s 9 -d -1 -p RTS -e 44 -c 2 -a 0 -i 0 -k MAC
h -t 1.096029325 -s 9 -d -1 -p RTS -e 44 -c 2 -a 0 -i 0 -k MAC
r -t 1.096381919 -s 10 -d -1 -p RTS -e 44 -c 2 -a 0 -i 0 -k MAC
+ -t 1.096391919 -s 10 -d -1 -p CTS -e 38 -c 2 -a 0 -i 0 -k MAC 
- -t 1.096391919 -s 10 -d -1 -p CTS -e 38 -c 2 -a 0 -i 0 -k MAC
h -t 1.096391919 -s 10 -d -1 -p CTS -e 38 -c 2 -a 0 -i 0 -k MAC
r -t 1.096696514 -s 9 -d -1 -p CTS -e 38 -c 2 -a 0 -i 0 -k MAC
+ -t 1.096706514 -s 9 -d 10 -p ack -e 118 -c 2 -a 0 -i 14 -k MAC 
- -t 1.096706514 -s 9 -d 10 -p ack -e 118 -c 2 -a 0 -i 14 -k MAC
h -t 1.096706514 -s 9 -d 10 -p ack -e 118 -c 2 -a 0 -i 14 -k MAC
r -t 1.097651109 -s 10 -d 10 -p ack -e 60 -c 2 -a 0 -i 14 -k MAC
+ -t 1.097661109 -s 10 -d -1 -p ACK -e 38 -c 2 -a 0 -i 0 -k MAC 
- -t 1.097661109 -s 10 -d -1 -p ACK -e 38 -c 2 -a 0 -i 0 -k MAC
h -t 1.097661109 -s 10 -d -1 -p ACK -e 38 -c 2 -a 0 -i 0 -k MAC
r -t 1.097676109 -s 10 -d 10 -p ack -e 40 -c 2 -a 0 -i 14 -k AGT
+ -t 1.097676109 -s 10 -d -1 -p tcp -e 1540 -c 2 -a 0 -i 20 -k AGT 
- -t 1.097676109 -s 10 -d -1 -p tcp -e 1540 -c 2 -a 0 -i 20 -k AGT
h -t 1.097676109 -s 10 -d -1 -p tcp -e 1540 -c 2 -a 0 -i 20 -k AGT
+ -t 1.097676109 -s 10 -d -1 -p tcp -e 1540 -c 2 -a 0 -i 21 -k AGT 
- -t 1.097676109 -s 10 -d -1 -p tcp -e 1540 -c 2 -a 0 -i 21 -k AGT
h -t 1.097676109 -s 10 -d -1 -p tcp -e 1540 -c 2 -a 0 -i 21 -k AGT
+ -t 1.097676109 -s 10 -d 9 -p tcp -e 1560 -c 2 -a 0 -i 20 -k RTR 
- -t 1.097676109 -s 10 -d 9 -p tcp -e 1560 -c 2 -a 0 -i 20 -k RTR
h -t 1.097676109 -s 10 -d 9 -p tcp -e 1560 -c 2 -a 0 -i 20 -k RTR
+ -t 1.097676109 -s 10 -d 9 -p tcp -e 1560 -c 2 -a 0 -i 21 -k RTR 
- -t 1.097676109 -s 10 -d 9 -p tcp -e 1560 -c 2 -a 0 -i 21 -k RTR
h -t 1.097676109 -s 10 -d 9 -p tcp -e 1560 -c 2 -a 0 -i 21 -k RTR
r -t 1.097965703 -s 9 -d -1 -p ACK -e 38 -c 2 -a 0 -i 0 -k MAC
+ -t 1.098315109 -s 10 -d -1 -p RTS -e 44 -c 2 -a 0 -i 0 -k MAC 
- -t 1.098315109 -s 10 -d -1 -p RTS -e 44 -c 2 -a 0 -i 0 -k MAC
h -t 1.098315109 -s 10 -d -1 -p RTS -e 44 -c 2 -a 0 -i 0 -k MAC
r -t 1.098667703 -s 9 -d -1 -p RTS -e 44 -c 2 -a 0 -i 0 -k MAC
+ -t 1.098677703 -s 9 -d -1 -p CTS -e 38 -c 2 -a 0 -i 0 -k MAC 
- -t 1.098677703 -s 9 -d -1 -p CTS -e 38 -c 2 -a 0 -i 0 -k MAC
h -t 1.098677703 -s 9 -d -1 -p CTS -e 38 -c 2 -a 0 -i 0 -k MAC
r -t 1.098982298 -s 10 -d -1 -p CTS -e 38 -c 2 -a 0 -i 0 -k MAC
+ -t 1.098992298 -s 10 -d 9 -p tcp -e 1618 -c 2 -a 0 -i 18 -k MAC 
- -t 1.098992298 -s 10 -d 9 -p tcp -e 1618 -c 2 -a 0 -i 18 -k MAC
h -t 1.098992298 -s 10 -d 9 -p tcp -e 1618 -c 2 -a 0 -i 18 -k MAC
r -t 1.111936893 -s 9 -d 9 -p tcp -e 1560 -c 2 -a 0 -i 18 -k MAC
+ -t 1.111946893 -s 9 -d -1 -p ACK -e 38 -c 2 -a 0 -i 0 -k MAC 
- -t 1.111946893 -s 9 -d -1 -p ACK -e 38 -c 2 -a 0 -i 0 -k MAC
h -t 1.111946893 -s 9 -d -1 -p ACK -e 38 -c 2 -a 0 -i 0 -k MAC
r -t 1.111961893 -s 9 -d 9 -p tcp -e 1540 -c 2 -a 0 -i 18 -k AGT
+ -t 1.111961893 -s 9 -d -1 -p ack -e 40 -c 2 -a 0 -i 22 -k AGT 
- -t 1.111961893 -s 9 -d -1 -p ack -e 40 -c 2 -a 0 -i 22 -k AGT
h -t 1.111961893 -s 9 -d -1 -p ack -e 40 -c 2 -a 0 -i 22 -k AGT
+ -t 1.111961893 -s 9 -d 10 -p ack -e 60 -c 2 -a 0 -i 22 -k RTR 
- -t 1.111961893 -s 9 -d 10 -p ack -e 60 -c 2 -a 0 -i 22 -k RTR
h -t 1.111961893 -s 9 -d 10 -p ack -e 60 -c 2 -a 0 -i 22 -k RTR
r -t 1.112251488 -s 10 -d -1 -p ACK -e 38 -c 2 -a 0 -i 0 -k MAC
+ -t 1.112340893 -s 9 -d -1 -p RTS -e 44 -c 2 -a 0 -i 0 -k MAC 
- -t 1.112340893 -s 9 -d -1 -p RTS -e 44 -c 2 -a 0 -i 0 -k MAC
h -t 1.112340893 -s 9 -d -1 -p RTS -e 44 -c 2 -a 0 -i 0 -k MAC
r -t 1.112693488 -s 10 -d -1 -p RTS -e 44 -c 2 -a 0 -i 0 -k MAC
+ -t 1.112703488 -s 10 -d -1 -p CTS -e 38 -c 2 -a 0 -i 0 -k MAC 
- -t 1.112703488 -s 10 -d -1 -p CTS -e 38 -c 2 -a 0 -i 0 -k MAC
h -t 1.112703488 -s 10 -d -1 -p CTS -e 38 -c 2 -a 0 -i 0 -k MAC
r -t 1.113008083 -s 9 -d -1 -p CTS -e 38 -c 2 -a 0 -i 0 -k MAC
+ -t 1.113018083 -s 9 -d 10 -p ack -e 118 -c 2 -a 0 -i 16 -k MAC 
- -t 1.113018083 -s 9 -d 10 -p ack -e 118 -c 2 -a 0 -i 16 -k MAC
h -t 1.113018083 -s 9 -d 10 -p ack -e 118 -c 2 -a 0 -i 16 -k MAC
r -t 1.113962678 -s 10 -d 10 -p ack -e 60 -c 2 -a 0 -i 16 -k MAC
+ -t 1.113972678 -s 10 -d -1 -p ACK -e 38 -c 2 -a 0 -i 0 -k MAC 
- -t 1.113972678 -s 10 -d -1 -p ACK -e 38 -c 2 -a 0 -i 0 -k MAC
h -t 1.113972678 -s 10 -d -1 -p ACK -e 38 -c 2 -a 0 -i 0 -k MAC
r -t 1.113987678 -s 10 -d 10 -p ack -e 40 -c 2 -a 0 -i 16 -k AGT
+ -t 1.113987678 -s 10 -d -1 -p tcp -e 1540 -c 2 -a 0 -i 23 -k AGT 
- -t 1.113987678 -s 10 -d -1 -p tcp -e 1540 -c 2 -a 0 -i 23 -k AGT
h -t 1.113987678 -s 10 -d -1 -p tcp -e 1540 -c 2 -a 0 -i 23 -k AGT
+ -t 1.113987678 -s 10 -d -1 -p tcp -e 1540 -c 2 -a 0 -i 24 -k AGT 
- -t 1.113987678 -s 10 -d -1 -p tcp -e 1540 -c 2 -a 0 -i 24 -k AGT
h -t 1.113987678 -s 10 -d -1 -p tcp -e 1540 -c 2 -a 0 -i 24 -k AGT
+ -t 1.113987678 -s 10 -d 9 -p tcp -e 1560 -c 2 -a 0 -i 23 -k RTR 
- -t 1.113987678 -s 10 -d 9 -p tcp -e 1560 -c 2 -a 0 -i 23 -k RTR
h -t 1.113987678 -s 10 -d 9 -p tcp -e 1560 -c 2 -a 0 -i 23 -k RTR
+ -t 1.113987678 -s 10 -d 9 -p tcp -e 1560 -c 2 -a 0 -i 24 -k RTR 
- -t 1.113987678 -s 10 -d 9 -p tcp -e 1560 -c 2 -a 0 -i 24 -k RTR
h -t 1.113987678 -s 10 -d 9 -p tcp -e 1560 -c 2 -a 0 -i 24 -k RTR
r -t 1.114277273 -s 9 -d -1 -p ACK -e 38 -c 2 -a 0 -i 0 -k MAC
+ -t 1.114767273 -s 9 -d -1 -p RTS -e 44 -c 2 -a 0 -i 0 -k MAC 
- -t 1.114767273 -s 9 -d -1 -p RTS -e 44 -c 2 -a 0 -i 0 -k MAC
h -t 1.114767273 -s 9 -d -1 -p RTS -e 44 -c 2 -a 0 -i 0 -k MAC
r -t 1.115119868 -s 10 -d -1 -p RTS -e 44 -c 2 -a 0 -i 0 -k MAC
+ -t 1.115129868 -s 10 -d -1 -p CTS -e 38 -c 2 -a 0 -i 0 -k MAC 
- -t 1.115129868 -s 10 -d -1 -p CTS -e 38 -c 2 -a 0 -i 0 -k MAC
h -t 1.115129868 -s 10 -d -1 -p CTS -e 38 -c 2 -a 0 -i 0 -k MAC
r -t 1.115434463 -s 9 -d -1 -p CTS -e 38 -c 2 -a 0 -i 0 -k MAC
+ -t 1.115444463 -s 9 -d 10 -p ack -e 118 -c 2 -a 0 -i 19 -k MAC 
- -t 1.115444463 -s 9 -d 10 -p ack -e 118 -c 2 -a 0 -i 19 -k MAC
h -t 1.115444463 -s 9 -d 10 -p ack -e 118 -c 2 -a 0 -i 19 -k MAC
r -t 1.116389058 -s 10 -d 10 -p ack -e 60 -c 2 -a 0 -i 19 -k MAC
+ -t 1.116399058 -s 10 -d -1 -p ACK -e 38 -c 2 -a 0 -i 0 -k MAC 
- -t 1.116399058 -s 10 -d -1 -p ACK -e 38 -c 2 -a 0 -i 0 -k MAC
h -t 1.116399058 -s 10 -d -1 -p ACK -e 38 -c 2 -a 0 -i 0 -k MAC
r -t 1.116414058 -s 10 -d 10 -p ack -e 40 -c 2 -a 0 -i 19 -k AGT
+ -t 1.116414058 -s 10 -d -1 -p tcp -e 1540 -c 2 -a 0 -i 25 -k AGT 
- -t 1.116414058 -s 10 -d -1 -p tcp -e 1540 -c 2 -a 0 -i 25 -k AGT
h -t 1.116414058 -s 10 -d -1 -p tcp -e 1540 -c 2 -a 0 -i 25 -k AGT
+ -t 1.116414058 -s 10 -d -1 -p tcp -e 1540 -c 2 -a 0 -i 26 -k AGT 
- -t 1.116414058 -s 10 -d -1 -p tcp -e 1540 -c 2 -a 0 -i 26 -k AGT
h -t 1.116414058 -s 10 -d -1 -p tcp -e 1540 -c 2 -a 0 -i 26 -k AGT
+ -t 1.116414058 -s 10 -d 9 -p tcp -e 1560 -c 2 -a 0 -i 25 -k RTR 
- -t 1.116414058 -s 10 -d 9 -p tcp -e 1560 -c 2 -a 0 -i 25 -k RTR
h -t 1.116414058 -s 10 -d 9 -p tcp -e 1560 -c 2 -a 0 -i 25 -k RTR
+ -t 1.116414058 -s 10 -d 9 -p tcp -e 1560 -c 2 -a 0 -i 26 -k RTR 
- -t 1.116414058 -s 10 -d 9 -p tcp -e 1560 -c 2 -a 0 -i 26 -k RTR
h -t 1.116414058 -s 10 -d 9 -p tcp -e 1560 -c 2 -a 0 -i 26 -k RTR
r -t 1.116703653 -s 9 -d -1 -p ACK -e 38 -c 2 -a 0 -i 0 -k MAC
+ -t 1.116873058 -s 10 -d -1 -p RTS -e 44 -c 2 -a 0 -i 0 -k MAC 
- -t 1.116873058 -s 10 -d -1 -p RTS -e 44 -c 2 -a 0 -i 0 -k MAC
h -t 1.116873058 -s 10 -d -1 -p RTS -e 44 -c 2 -a 0 -i 0 -k MAC
r -t 1.117225653 -s 9 -d -1 -p RTS -e 44 -c 2 -a 0 -i 0 -k MAC
+ -t 1.117235653 -s 9 -d -1 -p CTS -e 38 -c 2 -a 0 -i 0 -k MAC 
- -t 1.117235653 -s 9 -d -1 -p CTS -e 38 -c 2 -a 0 -i 0 -k MAC
h -t 1.117235653 -s 9 -d -1 -p CTS -e 38 -c 2 -a 0 -i 0 -k MAC
r -t 1.117540248 -s 10 -d -1 -p CTS -e 38 -c 2 -a 0 -i 0 -k MAC
+ -t 1.117550248 -s 10 -d 9 -p tcp -e 1618 -c 2 -a 0 -i 20 -k MAC 
- -t 1.117550248 -s 10 -d 9 -p tcp -e 1618 -c 2 -a 0 -i 20 -k MAC
h -t 1.117550248 -s 10 -d 9 -p tcp -e 1618 -c 2 -a 0 -i 20 -k MAC
r -t 1.130494843 -s 9 -d 9 -p tcp -e 1560 -c 2 -a 0 -i 20 -k MAC
+ -t 1.130504843 -s 9 -d -1 -p ACK -e 38 -c 2 -a 0 -i 0 -k MAC 
- -t 1.130504843 -s 9 -d -1 -p ACK -e 38 -c 2 -a 0 -i 0 -k MAC
h -t 1.130504843 -s 9 -d -1 -p ACK -e 38 -c 2 -a 0 -i 0 -k MAC
r -t 1.130519843 -s 9 -d 9 -p tcp -e 1540 -c 2 -a 0 -i 20 -k AGT
+ -t 1.130519843 -s 9 -d -1 -p ack -e 40 -c 2 -a 0 -i 28 -k AGT 
- -t 1.130519843 -s 9 -d -1 -p ack -e 40 -c 2 -a 0 -i 28 -k AGT
h -t 1.130519843 -s 9 -d -1 -p ack -e 40 -c 2 -a 0 -i 28 -k AGT
+ -t 1.130519843 -s 9 -d 10 -p ack -e 60 -c 2 -a 0 -i 28 -k RTR 
- -t 1.130519843 -s 9 -d 10 -p ack -e 60 -c 2 -a 0 -i 28 -k RTR
h -t 1.130519843 -s 9 -d 10 -p ack -e 60 -c 2 -a 0 -i 28 -k RTR
r -t 1.130809438 -s 10 -d -1 -p ACK -e 38 -c 2 -a 0 -i 0 -k MAC
+ -t 1.130938843 -s 9 -d -1 -p RTS -e 44 -c 2 -a 0 -i 0 -k MAC 
- -t 1.130938843 -s 9 -d -1 -p RTS -e 44 -c 2 -a 0 -i 0 -k MAC
h -t 1.130938843 -s 9 -d -1 -p RTS -e 44 -c 2 -a 0 -i 0 -k MAC
r -t 1.131291438 -s 10 -d -1 -p RTS -e 44 -c 2 -a 0 -i 0 -k MAC
+ -t 1.131301438 -s 10 -d -1 -p CTS -e 38 -c 2 -a 0 -i 0 -k MAC 
- -t 1.131301438 -s 10 -d -1 -p CTS -e 38 -c 2 -a 0 -i 0 -k MAC
h -t 1.131301438 -s 10 -d -1 -p CTS -e 38 -c 2 -a 0 -i 0 -k MAC