n -t * -s 0  -x 202 -y 596 -Z 0 -z 30  -v circle -c green
n -t * -s 1  -x 595 -y 603 -Z 0 -z 30  -v circle -c green
n -t * -s 2  -x 403 -y 502 -Z 0 -z 30  -v circle -c green
n -t * -s 3  -x 395 -y 608 -Z 0 -z 30  -v circle -c green
n -t * -s 4  -x 299 -y 440 -Z 0 -z 30  -v circle -c green
n -t * -s 5  -x 529 -y 437 -Z 0 -z 30  -v circle -c green
n -t * -s 6  -x 411 -y 375 -Z 0 -z 30  -v circle -c green
n -t * -s 7  -x 176 -y 464 -Z 0 -z 30  -v circle -c green
n -t * -s 8  -x 623 -y 487 -Z 0 -z 30  -v circle -c green
n -t * -s 9  -x 302 -y 317 -Z 0 -z 30  -v circle -c green
n -t * -s 10  -x 516 -y 310 -Z 0 -z 30  -v circle -c green
n -t * -s 11  -x 269 -y 694 -Z 0 -z 30  -v circle -c green
V -t * -v 1.0a5 -a 0
W -t * -x 723 -y 794
A -t * -n 1 -p 0 -o 0xffffffff -c 31 -a 1
A -t * -h 1 -m 2147483647 -s 0
n -t 0.000000 -s 1 -x 595.000000 -y 603.000000 -U -4.639645 -V -24.565702 -T 20.475703
n -t 0.000000 -s 4 -x 299.000000 -y 440.000000 -U 0.083322 -V 4.999306 -T 12.001667
n -t 0.000000 -s 5 -x 529.000000 -y 437.000000 -U -26.230511 -V -14.558855 -T 16.278752
n -t 0.000000 -s 8 -x 623.000000 -y 487.000000 -U -21.967692 -V -11.934006 -T 13.155683
n -t 0.000000 -s 11 -x 269.000000 -y 694.000000 -U 1.642879 -V -4.722388 -T 140.606828
n -t 0.500000 -s 0 -x 202.000000 -y 596.000000 -U 22.495353 -V -10.906838 -T 8.801818
n -t 0.500000 -s 3 -x 395.000000 -y 608.000000 -U 9.835442 -V -24.067906 -T 8.642214
n -t 0.500000 -s 6 -x 411.000000 -y 375.000000 -U -13.773367 -V 9.964655 -T 22.579808
n -t 0.500000 -s 7 -x 176.000000 -y 464.000000 -U 20.171571 -V -14.768471 -T 11.104738
n -t 0.500000 -s 10 -x 516.000000 -y 310.000000 -U 22.626678 -V 12.807554 -T 7.027103
v -t 0.5 -e sim_annotation 0.5 1 Starting CBR0 node0 to node1
v -t 0.5 -e sim_annotation 0.5 2 Starting CBR1 node7 to node8
n -t 0.700000 -s 2 -x 403.000000 -y 502.000000 -U 4.691235 -V -19.442024 -T 20.676859
n -t 0.700000 -s 9 -x 302.000000 -y 317.000000 -U 15.621681 -V 12.488519 -T 22.660814
+ -t 1.000000000 -s 0 -d -1 -p tcp -e 40 -c 2 -a 0 -i 0 -k AGT 
- -t 1.000000000 -s 0 -d -1 -p tcp -e 40 -c 2 -a 0 -i 0 -k AGT
h -t 1.000000000 -s 0 -d -1 -p tcp -e 40 -c 2 -a 0 -i 0 -k AGT
+ -t 1.000000000 -s 7 -d -1 -p tcp -e 40 -c 2 -a 0 -i 1 -k AGT 
- -t 1.000000000 -s 7 -d -1 -p tcp -e 40 -c 2 -a 0 -i 1 -k AGT
h -t 1.000000000 -s 7 -d -1 -p tcp -e 40 -c 2 -a 0 -i 1 -k AGT
+ -t 1.000000000 -s 0 -d -1 -p AOMDV -e 52 -c 2 -a 0 -i 0 -k RTR 
- -t 1.000000000 -s 0 -d -1 -p AOMDV -e 52 -c 2 -a 0 -i 0 -k RTR
h -t 1.000000000 -s 0 -d -1 -p AOMDV -e 52 -c 2 -a 0 -i 0 -k RTR
+ -t 1.000000000 -s 7 -d -1 -p AOMDV -e 52 -c 2 -a 0 -i 0 -k RTR 
- -t 1.000000000 -s 7 -d -1 -p AOMDV -e 52 -c 2 -a 0 -i 0 -k RTR
h -t 1.000000000 -s 7 -d -1 -p AOMDV -e 52 -c 2 -a 0 -i 0 -k RTR
+ -t 1.000095000 -s 7 -d -1 -p AOMDV -e 110 -c 2 -a 0 -i 0 -k MAC 
- -t 1.000095000 -s 7 -d -1 -p AOMDV -e 110 -c 2 -a 0 -i 0 -k MAC
h -t 1.000095000 -s 7 -d -1 -p AOMDV -e 110 -c 2 -a 0 -i 0 -k MAC
r -t 1.000975379 -s 4 -d -1 -p AOMDV -e 52 -c 2 -a 0 -i 0 -k MAC
r -t 1.000975456 -s 0 -d -1 -p AOMDV -e 52 -c 2 -a 0 -i 0 -k MAC
r -t 1.000975606 -s 9 -d -1 -p AOMDV -e 52 -c 2 -a 0 -i 0 -k MAC
r -t 1.000975740 -s 2 -d -1 -p AOMDV -e 52 -c 2 -a 0 -i 0 -k MAC
r -t 1.000975770 -s 6 -d -1 -p AOMDV -e 52 -c 2 -a 0 -i 0 -k MAC
r -t 1.000975825 -s 11 -d -1 -p AOMDV -e 52 -c 2 -a 0 -i 0 -k MAC
r -t 1.001000379 -s 4 -d -1 -p AOMDV -e 52 -c 2 -a 0 -i 0 -k RTR
r -t 1.001000456 -s 0 -d -1 -p AOMDV -e 52 -c 2 -a 0 -i 0 -k RTR
r -t 1.001000606 -s 9 -d -1 -p AOMDV -e 52 -c 2 -a 0 -i 0 -k RTR
r -t 1.001000740 -s 2 -d -1 -p AOMDV -e 52 -c 2 -a 0 -i 0 -k RTR
r -t 1.001000770 -s 6 -d -1 -p AOMDV -e 52 -c 2 -a 0 -i 0 -k RTR
r -t 1.001000825 -s 11 -d -1 -p AOMDV -e 52 -c 2 -a 0 -i 0 -k RTR
+ -t 1.001225456 -s 0 -d -1 -p AOMDV -e 110 -c 2 -a 0 -i 0 -k MAC 
- -t 1.001225456 -s 0 -d -1 -p AOMDV -e 110 -c 2 -a 0 -i 0 -k MAC
h -t 1.001225456 -s 0 -d -1 -p AOMDV -e 110 -c 2 -a 0 -i 0 -k MAC
r -t 1.002105836 -s 11 -d -1 -p AOMDV -e 52 -c 2 -a 0 -i 0 -k MAC
r -t 1.002105911 -s 7 -d -1 -p AOMDV -e 52 -c 2 -a 0 -i 0 -k MAC
r -t 1.002106019 -s 4 -d -1 -p AOMDV -e 52 -c 2 -a 0 -i 0 -k MAC
r -t 1.002106078 -s 3 -d -1 -p AOMDV -e 52 -c 2 -a 0 -i 0 -k MAC
r -t 1.002106166 -s 2 -d -1 -p AOMDV -e 52 -c 2 -a 0 -i 0 -k MAC
r -t 1.002130836 -s 11 -d -1 -p AOMDV -e 52 -c 2 -a 0 -i 0 -k RTR
r -t 1.002130911 -s 7 -d -1 -p AOMDV -e 52 -c 2 -a 0 -i 0 -k RTR
r -t 1.002131019 -s 4 -d -1 -p AOMDV -e 52 -c 2 -a 0 -i 0 -k RTR
r -t 1.002131078 -s 3 -d -1 -p AOMDV -e 52 -c 2 -a 0 -i 0 -k RTR
r -t 1.002131166 -s 2 -d -1 -p AOMDV -e 52 -c 2 -a 0 -i 0 -k RTR
+ -t 1.003172365 -s 6 -d -1 -p AOMDV -e 52 -c 2 -a 0 -i 0 -k RTR 
- -t 1.003172365 -s 6 -d -1 -p AOMDV -e 52 -c 2 -a 0 -i 0 -k RTR
h -t 1.003172365 -s 6 -d -1 -p AOMDV -e 52 -c 2 -a 0 -i 0 -k RTR
+ -t 1.003223151 -s 2 -d -1 -p AOMDV -e 52 -c 2 -a 0 -i 0 -k RTR 
- -t 1.003223151 -s 2 -d -1 -p AOMDV -e 52 -c 2 -a 0 -i 0 -k RTR
h -t 1.003223151 -s 2 -d -1 -p AOMDV -e 52 -c 2 -a 0 -i 0 -k RTR
+ -t 1.003398151 -s 2 -d -1 -p AOMDV -e 110 -c 2 -a 0 -i 0 -k MAC 
- -t 1.003398151 -s 2 -d -1 -p AOMDV -e 110 -c 2 -a 0 -i 0 -k MAC
h -t 1.003398151 -s 2 -d -1 -p AOMDV -e 110 -c 2 -a 0 -i 0 -k MAC
+ -t 1.003413081 -s 11 -d -1 -p AOMDV -e 52 -c 2 -a 0 -i 0 -k RTR 
- -t 1.003413081 -s 11 -d -1 -p AOMDV -e 52 -c 2 -a 0 -i 0 -k RTR
h -t 1.003413081 -s 11 -d -1 -p AOMDV -e 52 -c 2 -a 0 -i 0 -k RTR
r -t 1.004278484 -s 3 -d -1 -p AOMDV -e 52 -c 2 -a 0 -i 0 -k MAC
r -t 1.004278538 -s 6 -d -1 -p AOMDV -e 52 -c 2 -a 0 -i 0 -k MAC
r -t 1.004278541 -s 4 -d -1 -p AOMDV -e 52 -c 2 -a 0 -i 0 -k MAC
r -t 1.004278560 -s 5 -d -1 -p AOMDV -e 52 -c 2 -a 0 -i 0 -k MAC
r -t 1.004278810 -s 8 -d -1 -p AOMDV -e 52 -c 2 -a 0 -i 0 -k MAC
r -t 1.004278820 -s 9 -d -1 -p AOMDV -e 52 -c 2 -a 0 -i 0 -k MAC
r -t 1.004278828 -s 1 -d -1 -p AOMDV -e 52 -c 2 -a 0 -i 0 -k MAC
r -t 1.004278861 -s 0 -d -1 -p AOMDV -e 52 -c 2 -a 0 -i 0 -k MAC
r -t 1.004278877 -s 10 -d -1 -p AOMDV -e 52 -c 2 -a 0 -i 0 -k MAC
r -t 1.004278890 -s 7 -d -1 -p AOMDV -e 52 -c 2 -a 0 -i 0 -k MAC
r -t 1.004278934 -s 11 -d -1 -p AOMDV -e 52 -c 2 -a 0 -i 0 -k MAC
r -t 1.004303484 -s 3 -d -1 -p AOMDV -e 52 -c 2 -a 0 -i 0 -k RTR
r -t 1.004303538 -s 6 -d -1 -p AOMDV -e 52 -c 2 -a 0 -i 0 -k RTR
r -t 1.004303541 -s 4 -d -1 -p AOMDV -e 52 -c 2 -a 0 -i 0 -k RTR
r -t 1.004303560 -s 5 -d -1 -p AOMDV -e 52 -c 2 -a 0 -i 0 -k RTR
r -t 1.004303810 -s 8 -d -1 -p AOMDV -e 52 -c 2 -a 0 -i 0 -k RTR
r -t 1.004303820 -s 9 -d -1 -p AOMDV -e 52 -c 2 -a 0 -i 0 -k RTR
r -t 1.004303828 -s 1 -d -1 -p AOMDV -e 52 -c 2 -a 0 -i 0 -k RTR
+ -t 1.004303828 -s 1 -d 2 -p AOMDV -e 52 -c 2 -a 0 -i 0 -k RTR 
- -t 1.004303828 -s 1 -d 2 -p AOMDV -e 52 -c 2 -a 0 -i 0 -k RTR
h -t 1.004303828 -s 1 -d 2 -p AOMDV -e 52 -c 2 -a 0 -i 0 -k RTR
r -t 1.004303861 -s 0 -d -1 -p AOMDV -e 52 -c 2 -a 0 -i 0 -k RTR
r -t 1.004303877 -s 10 -d -1 -p AOMDV -e 52 -c 2 -a 0 -i 0 -k RTR
r -t 1.004303890 -s 7 -d -1 -p AOMDV -e 52 -c 2 -a 0 -i 0 -k RTR
r -t 1.004303934 -s 11 -d -1 -p AOMDV -e 52 -c 2 -a 0 -i 0 -k RTR
+ -t 1.004388538 -s 6 -d -1 -p AOMDV -e 110 -c 2 -a 0 -i 0 -k MAC 
- -t 1.004388538 -s 6 -d -1 -p AOMDV -e 110 -c 2 -a 0 -i 0 -k MAC
h -t 1.004388538 -s 6 -d -1 -p AOMDV -e 110 -c 2 -a 0 -i 0 -k MAC
+ -t 1.004411903 -s 9 -d -1 -p AOMDV -e 52 -c 2 -a 0 -i 0 -k RTR 
- -t 1.004411903 -s 9 -d -1 -p AOMDV -e 52 -c 2 -a 0 -i 0 -k RTR
h -t 1.004411903 -s 9 -d -1 -p AOMDV -e 52 -c 2 -a 0 -i 0 -k RTR
+ -t 1.004887836 -s 8 -d -1 -p AOMDV -e 52 -c 2 -a 0 -i 0 -k RTR 
- -t 1.004887836 -s 8 -d -1 -p AOMDV -e 52 -c 2 -a 0 -i 0 -k RTR
h -t 1.004887836 -s 8 -d -1 -p AOMDV -e 52 -c 2 -a 0 -i 0 -k RTR
r -t 1.005268895 -s 5 -d -1 -p AOMDV -e 52 -c 2 -a 0 -i 0 -k MAC
r -t 1.005268917 -s 9 -d -1 -p AOMDV -e 52 -c 2 -a 0 -i 0 -k MAC
r -t 1.005268925 -s 2 -d -1 -p AOMDV -e 52 -c 2 -a 0 -i 0 -k MAC
r -t 1.005268949 -s 4 -d -1 -p AOMDV -e 52 -c 2 -a 0 -i 0 -k MAC
r -t 1.005269000 -s 10 -d -1 -p AOMDV -e 52 -c 2 -a 0 -i 0 -k MAC
r -t 1.005269257 -s 3 -d -1 -p AOMDV -e 52 -c 2 -a 0 -i 0 -k MAC
r -t 1.005269266 -s 8 -d -1 -p AOMDV -e 52 -c 2 -a 0 -i 0 -k MAC
r -t 1.005269308 -s 7 -d -1 -p AOMDV -e 52 -c 2 -a 0 -i 0 -k MAC
r -t 1.005293895 -s 5 -d -1 -p AOMDV -e 52 -c 2 -a 0 -i 0 -k RTR
r -t 1.005293917 -s 9 -d -1 -p AOMDV -e 52 -c 2 -a 0 -i 0 -k RTR
r -t 1.005293925 -s 2 -d -1 -p AOMDV -e 52 -c 2 -a 0 -i 0 -k RTR
r -t 1.005293949 -s 4 -d -1 -p AOMDV -e 52 -c 2 -a 0 -i 0 -k RTR
r -t 1.005294000 -s 10 -d -1 -p AOMDV -e 52 -c 2 -a 0 -i 0 -k RTR
r -t 1.005294257 -s 3 -d -1 -p AOMDV -e 52 -c 2 -a 0 -i 0 -k RTR
r -t 1.005294266 -s 8 -d -1 -p AOMDV -e 52 -c 2 -a 0 -i 0 -k RTR
+ -t 1.005294266 -s 8 -d 6 -p AOMDV -e 52 -c 2 -a 0 -i 0 -k RTR 
- -t 1.005294266 -s 8 -d 6 -p AOMDV -e 52 -c 2 -a 0 -i 0 -k RTR
h -t 1.005294266 -s 8 -d 6 -p AOMDV -e 52 -c 2 -a 0 -i 0 -k RTR
r -t 1.005294308 -s 7 -d -1 -p AOMDV -e 52 -c 2 -a 0 -i 0 -k RTR
+ -t 1.005423873 -s 5 -d -1 -p AOMDV -e 52 -c 2 -a 0 -i 0 -k RTR 
- -t 1.005423873 -s 5 -d -1 -p AOMDV -e 52 -c 2 -a 0 -i 0 -k RTR
h -t 1.005423873 -s 5 -d -1 -p AOMDV -e 52 -c 2 -a 0 -i 0 -k RTR
+ -t 1.005499266 -s 8 -d -1 -p AOMDV -e 110 -c 2 -a 0 -i 0 -k MAC 
- -t 1.005499266 -s 8 -d -1 -p AOMDV -e 110 -c 2 -a 0 -i 0 -k MAC
h -t 1.005499266 -s 8 -d -1 -p AOMDV -e 110 -c 2 -a 0 -i 0 -k MAC
+ -t 1.005661538 -s 4 -d -1 -p AOMDV -e 52 -c 2 -a 0 -i 0 -k RTR 
- -t 1.005661538 -s 4 -d -1 -p AOMDV -e 52 -c 2 -a 0 -i 0 -k RTR
h -t 1.005661538 -s 4 -d -1 -p AOMDV -e 52 -c 2 -a 0 -i 0 -k RTR
+ -t 1.006186269 -s 3 -d -1 -p AOMDV -e 52 -c 2 -a 0 -i 0 -k RTR 
- -t 1.006186269 -s 3 -d -1 -p AOMDV -e 52 -c 2 -a 0 -i 0 -k RTR
h -t 1.006186269 -s 3 -d -1 -p AOMDV -e 52 -c 2 -a 0 -i 0 -k RTR
r -t 1.006379613 -s 1 -d -1 -p AOMDV -e 52 -c 2 -a 0 -i 0 -k MAC
r -t 1.006379638 -s 5 -d -1 -p AOMDV -e 52 -c 2 -a 0 -i 0 -k MAC
r -t 1.006379849 -s 10 -d -1 -p AOMDV -e 52 -c 2 -a 0 -i 0 -k MAC
r -t 1.006379925 -s 2 -d -1 -p AOMDV -e 52 -c 2 -a 0 -i 0 -k MAC
r -t 1.006379995 -s 6 -d -1 -p AOMDV -e 52 -c 2 -a 0 -i 0 -k MAC
r -t 1.006380048 -s 3 -d -1 -p AOMDV -e 52 -c 2 -a 0 -i 0 -k MAC
r -t 1.006404613 -s 1 -d -1 -p AOMDV -e 52 -c 2 -a 0 -i 0 -k RTR
r -t 1.006404638 -s 5 -d -1 -p AOMDV -e 52 -c 2 -a 0 -i 0 -k RTR
r -t 1.006404849 -s 10 -d -1 -p AOMDV -e 52 -c 2 -a 0 -i 0 -k RTR
r -t 1.006404925 -s 2 -d -1 -p AOMDV -e 52 -c 2 -a 0 -i 0 -k RTR
r -t 1.006404995 -s 6 -d -1 -p AOMDV -e 52 -c 2 -a 0 -i 0 -k RTR
r -t 1.006405048 -s 3 -d -1 -p AOMDV -e 52 -c 2 -a 0 -i 0 -k RTR
+ -t 1.006509266 -s 8 -d -1 -p ARP -e 86 -c 2 -a 0 -i 0 -k MAC 
- -t 1.006509266 -s 8 -d -1 -p ARP -e 86 -c 2 -a 0 -i 0 -k MAC
h -t 1.006509266 -s 8 -d -1 -p ARP -e 86 -c 2 -a 0 -i 0 -k MAC
r -t 1.007197613 -s 1 -d -1 -p ARP -e 28 -c 2 -a 0 -i 0 -k MAC
r -t 1.007197638 -s 5 -d -1 -p ARP -e 28 -c 2 -a 0 -i 0 -k MAC
r -t 1.007197849 -s 10 -d -1 -p ARP -e 28 -c 2 -a 0 -i 0 -k MAC
r -t 1.007197925 -s 2 -d -1 -p ARP -e 28 -c 2 -a 0 -i 0 -k MAC
r -t 1.007197995 -s 6 -d -1 -p ARP -e 28 -c 2 -a 0 -i 0 -k MAC
r -t 1.007198048 -s 3 -d -1 -p ARP -e 28 -c 2 -a 0 -i 0 -k MAC
+ -t 1.007287995 -s 6 -d -1 -p RTS -e 44 -c 2 -a 0 -i 0 -k MAC 
- -t 1.007287995 -s 6 -d -1 -p RTS -e 44 -c 2 -a 0 -i 0 -k MAC
h -t 1.007287995 -s 6 -d -1 -p RTS -e 44 -c 2 -a 0 -i 0 -k MAC
r -t 1.007640723 -s 8 -d -1 -p RTS -e 44 -c 2 -a 0 -i 0 -k MAC
+ -t 1.007650723 -s 8 -d -1 -p CTS -e 38 -c 2 -a 0 -i 0 -k MAC 
- -t 1.007650723 -s 8 -d -1 -p CTS -e 38 -c 2 -a 0 -i 0 -k MAC
h -t 1.007650723 -s 8 -d -1 -p CTS -e 38 -c 2 -a 0 -i 0 -k MAC
+ -t 1.007923524 -s 0 -d -1 -p AOMDV -e 52 -c 2 -a 0 -i 0 -k RTR 
- -t 1.007923524 -s 0 -d -1 -p AOMDV -e 52 -c 2 -a 0 -i 0 -k RTR
h -t 1.007923524 -s 0 -d -1 -p AOMDV -e 52 -c 2 -a 0 -i 0 -k RTR
r -t 1.007955452 -s 6 -d -1 -p CTS -e 38 -c 2 -a 0 -i 0 -k MAC
+ -t 1.007965452 -s 6 -d -1 -p ARP -e 86 -c 2 -a 0 -i 0 -k MAC 
- -t 1.007965452 -s 6 -d -1 -p ARP -e 86 -c 2 -a 0 -i 0 -k MAC
h -t 1.007965452 -s 6 -d -1 -p ARP -e 86 -c 2 -a 0 -i 0 -k MAC
r -t 1.008654180 -s 8 -d -1 -p ARP -e 28 -c 2 -a 0 -i 0 -k MAC
+ -t 1.008664180 -s 8 -d -1 -p ACK -e 38 -c 2 -a 0 -i 0 -k MAC 
- -t 1.008664180 -s 8 -d -1 -p ACK -e 38 -c 2 -a 0 -i 0 -k MAC
h -t 1.008664180 -s 8 -d -1 -p ACK -e 38 -c 2 -a 0 -i 0 -k MAC
+ -t 1.008904326 -s 11 -d -1 -p AOMDV -e 52 -c 2 -a 0 -i 0 -k RTR 
- -t 1.008904326 -s 11 -d -1 -p AOMDV -e 52 -c 2 -a 0 -i 0 -k RTR
h -t 1.008904326 -s 11 -d -1 -p AOMDV -e 52 -c 2 -a 0 -i 0 -k RTR
r -t 1.008968909 -s 6 -d -1 -p ACK -e 38 -c 2 -a 0 -i 0 -k MAC
+ -t 1.009138962 -s 3 -d -1 -p AOMDV -e 110 -c 2 -a 0 -i 0 -k MAC 
- -t 1.009138962 -s 3 -d -1 -p AOMDV -e 110 -c 2 -a 0 -i 0 -k MAC
h -t 1.009138962 -s 3 -d -1 -p AOMDV -e 110 -c 2 -a 0 -i 0 -k MAC
+ -t 1.009398992 -s 2 -d -1 -p AOMDV -e 52 -c 2 -a 0 -i 0 -k RTR 
- -t 1.009398992 -s 2 -d -1 -p AOMDV -e 52 -c 2 -a 0 -i 0 -k RTR
h -t 1.009398992 -s 2 -d -1 -p AOMDV -e 52 -c 2 -a 0 -i 0 -k RTR
+ -t 1.009621278 -s 9 -d -1 -p AOMDV -e 52 -c 2 -a 0 -i 0 -k RTR 
- -t 1.009621278 -s 9 -d -1 -p AOMDV -e 52 -c 2 -a 0 -i 0 -k RTR
h -t 1.009621278 -s 9 -d -1 -p AOMDV -e 52 -c 2 -a 0 -i 0 -k RTR
+ -t 1.009753230 -s 7 -d -1 -p AOMDV -e 52 -c 2 -a 0 -i 0 -k RTR 
- -t 1.009753230 -s 7 -d -1 -p AOMDV -e 52 -c 2 -a 0 -i 0 -k RTR
h -t 1.009753230 -s 7 -d -1 -p AOMDV -e 52 -c 2 -a 0 -i 0 -k RTR
r -t 1.010019295 -s 2 -d -1 -p AOMDV -e 52 -c 2 -a 0 -i 0 -k MAC
r -t 1.010019494 -s 11 -d -1 -p AOMDV -e 52 -c 2 -a 0 -i 0 -k MAC
r -t 1.010019566 -s 4 -d -1 -p AOMDV -e 52 -c 2 -a 0 -i 0 -k MAC
r -t 1.010019584 -s 0 -d -1 -p AOMDV -e 52 -c 2 -a 0 -i 0 -k MAC
r -t 1.010019599 -s 1 -d -1 -p AOMDV -e 52 -c 2 -a 0 -i 0 -k MAC
r -t 1.010019633 -s 5 -d -1 -p AOMDV -e 52 -c 2 -a 0 -i 0 -k MAC
r -t 1.010019681 -s 6 -d -1 -p AOMDV -e 52 -c 2 -a 0 -i 0 -k MAC
r -t 1.010019743 -s 8 -d -1 -p AOMDV -e 52 -c 2 -a 0 -i 0 -k MAC
r -t 1.010044295 -s 2 -d -1 -p AOMDV -e 52 -c 2 -a 0 -i 0 -k RTR
r -t 1.010044494 -s 11 -d -1 -p AOMDV -e 52 -c 2 -a 0 -i 0 -k RTR
r -t 1.010044566 -s 4 -d -1 -p AOMDV -e 52 -c 2 -a 0 -i 0 -k RTR
r -t 1.010044584 -s 0 -d -1 -p AOMDV -e 52 -c 2 -a 0 -i 0 -k RTR
r -t 1.010044599 -s 1 -d -1 -p AOMDV -e 52 -c 2 -a 0 -i 0 -k RTR
+ -t 1.010044599 -s 1 -d 3 -p AOMDV -e 52 -c 2 -a 0 -i 0 -k RTR 
- -t 1.010044599 -s 1 -d 3 -p AOMDV -e 52 -c 2 -a 0 -i 0 -k RTR
h -t 1.010044599 -s 1 -d 3 -p AOMDV -e 52 -c 2 -a 0 -i 0 -k RTR
r -t 1.010044633 -s 5 -d -1 -p AOMDV -e 52 -c 2 -a 0 -i 0 -k RTR
r -t 1.010044681 -s 6 -d -1 -p AOMDV -e 52 -c 2 -a 0 -i 0 -k RTR
r -t 1.010044743 -s 8 -d -1 -p AOMDV -e 52 -c 2 -a 0 -i 0 -k RTR
+ -t 1.010069584 -s 0 -d -1 -p AOMDV -e 110 -c 2 -a 0 -i 0 -k MAC 
- -t 1.010069584 -s 0 -d -1 -p AOMDV -e 110 -c 2 -a 0 -i 0 -k MAC
h -t 1.010069584 -s 0 -d -1 -p AOMDV -e 110 -c 2 -a 0 -i 0 -k MAC
+ -t 1.010254150 -s 10 -d -1 -p AOMDV -e 52 -c 2 -a 0 -i 0 -k RTR 
- -t 1.010254150 -s 10 -d -1 -p AOMDV -e 52 -c 2 -a 0 -i 0 -k RTR
h -t 1.010254150 -s 10 -d -1 -p AOMDV -e 52 -c 2 -a 0 -i 0 -k RTR
+ -t 1.010742220 -s 10 -d -1 -p AOMDV -e 52 -c 2 -a 0 -i 0 -k RTR 
- -t 1.010742220 -s 10 -d -1 -p AOMDV -e 52 -c 2 -a 0 -i 0 -k RTR
h -t 1.010742220 -s 10 -d -1 -p AOMDV -e 52 -c 2 -a 0 -i 0 -k RTR
r -t 1.010949964 -s 11 -d -1 -p AOMDV -e 52 -c 2 -a 0 -i 0 -k MAC
r -t 1.010950039 -s 7 -d -1 -p AOMDV -e 52 -c 2 -a 0 -i 0 -k MAC
r -t 1.010950146 -s 4 -d -1 -p AOMDV -e 52 -c 2 -a 0 -i 0 -k MAC
r -t 1.010950206 -s 3 -d -1 -p AOMDV -e 52 -c 2 -a 0 -i 0 -k MAC
r -t 1.010950294 -s 2 -d -1 -p AOMDV -e 52 -c 2 -a 0 -i 0 -k MAC
r -t 1.010974964 -s 11 -d -1 -p AOMDV -e 52 -c 2 -a 0 -i 0 -k RTR
r -t 1.010975039 -s 7 -d -1 -p AOMDV -e 52 -c 2 -a 0 -i 0 -k RTR
r -t 1.010975146 -s 4 -d -1 -p AOMDV -e 52 -c 2 -a 0 -i 0 -k RTR
r -t 1.010975206 -s 3 -d -1 -p AOMDV -e 52 -c 2 -a 0 -i 0 -k RTR
r -t 1.010975294 -s 2 -d -1 -p AOMDV -e 52 -c 2 -a 0 -i 0 -k RTR
+ -t 1.011160146 -s 4 -d -1 -p AOMDV -e 110 -c 2 -a 0 -i 0 -k MAC 
- -t 1.011160146 -s 4 -d -1 -p AOMDV -e 110 -c 2 -a 0 -i 0 -k MAC
h -t 1.011160146 -s 4 -d -1 -p AOMDV -e 110 -c 2 -a 0 -i 0 -k MAC
+ -t 1.011180473 -s 4 -d -1 -p AOMDV -e 52 -c 2 -a 0 -i 0 -k RTR 
- -t 1.011180473 -s 4 -d -1 -p AOMDV -e 52 -c 2 -a 0 -i 0 -k RTR
h -t 1.011180473 -s 4 -d -1 -p AOMDV -e 52 -c 2 -a 0 -i 0 -k RTR
r -t 1.012040524 -s 7 -d -1 -p AOMDV -e 52 -c 2 -a 0 -i 0 -k MAC
r -t 1.012040536 -s 2 -d -1 -p AOMDV -e 52 -c 2 -a 0 -i 0 -k MAC
r -t 1.012040557 -s 6 -d -1 -p AOMDV -e 52 -c 2 -a 0 -i 0 -k MAC
r -t 1.012040561 -s 9 -d -1 -p AOMDV -e 52 -c 2 -a 0 -i 0 -k MAC
r -t 1.012040708 -s 0 -d -1 -p AOMDV -e 52 -c 2 -a 0 -i 0 -k MAC
r -t 1.012040751 -s 3 -d -1 -p AOMDV -e 52 -c 2 -a 0 -i 0 -k MAC
r -t 1.012040828 -s 5 -d -1 -p AOMDV -e 52 -c 2 -a 0 -i 0 -k MAC
r -t 1.012040966 -s 11 -d -1 -p AOMDV -e 52 -c 2 -a 0 -i 0 -k MAC
r -t 1.012065524 -s 7 -d -1 -p AOMDV -e 52 -c 2 -a 0 -i 0 -k RTR
r -t 1.012065536 -s 2 -d -1 -p AOMDV -e 52 -c 2 -a 0 -i 0 -k RTR
r -t 1.012065557 -s 6 -d -1 -p AOMDV -e 52 -c 2 -a 0 -i 0 -k RTR
r -t 1.012065561 -s 9 -d -1 -p AOMDV -e 52 -c 2 -a 0 -i 0 -k RTR
r -t 1.012065708 -s 0 -d -1 -p AOMDV -e 52 -c 2 -a 0 -i 0 -k RTR
r -t 1.012065751 -s 3 -d -1 -p AOMDV -e 52 -c 2 -a 0 -i 0 -k RTR
r -t 1.012065828 -s 5 -d -1 -p AOMDV -e 52 -c 2 -a 0 -i 0 -k RTR
r -t 1.012065966 -s 11 -d -1 -p AOMDV -e 52 -c 2 -a 0 -i 0 -k RTR
+ -t 1.012170828 -s 5 -d -1 -p AOMDV -e 110 -c 2 -a 0 -i 0 -k MAC 
- -t 1.012170828 -s 5 -d -1 -p AOMDV -e 110 -c 2 -a 0 -i 0 -k MAC
h -t 1.012170828 -s 5 -d -1 -p AOMDV -e 110 -c 2 -a 0 -i 0 -k MAC
+ -t 1.012280628 -s 5 -d -1 -p AOMDV -e 52 -c 2 -a 0 -i 0 -k RTR 
- -t 1.012280628 -s 5 -d -1 -p AOMDV -e 52 -c 2 -a 0 -i 0 -k RTR
h -t 1.012280628 -s 5 -d -1 -p AOMDV -e 52 -c 2 -a 0 -i 0 -k RTR
r -t 1.013051186 -s 6 -d -1 -p AOMDV -e 52 -c 2 -a 0 -i 0 -k MAC
r -t 1.013051191 -s 10 -d -1 -p AOMDV -e 52 -c 2 -a 0 -i 0 -k MAC
r -t 1.013051200 -s 8 -d -1 -p AOMDV -e 52 -c 2 -a 0 -i 0 -k MAC
r -t 1.013051237 -s 2 -d -1 -p AOMDV -e 52 -c 2 -a 0 -i 0 -k MAC
r -t 1.013051425 -s 1 -d -1 -p AOMDV -e 52 -c 2 -a 0 -i 0 -k MAC
r -t 1.013051500 -s 3 -d -1 -p AOMDV -e 52 -c 2 -a 0 -i 0 -k MAC
r -t 1.013051510 -s 4 -d -1 -p AOMDV -e 52 -c 2 -a 0 -i 0 -k MAC
r -t 1.013051563 -s 9 -d -1 -p AOMDV -e 52 -c 2 -a 0 -i 0 -k MAC
r -t 1.013076186 -s 6 -d -1 -p AOMDV -e 52 -c 2 -a 0 -i 0 -k RTR
r -t 1.013076191 -s 10 -d -1 -p AOMDV -e 52 -c 2 -a 0 -i 0 -k RTR
r -t 1.013076200 -s 8 -d -1 -p AOMDV -e 52 -c 2 -a 0 -i 0 -k RTR
r -t 1.013076237 -s 2 -d -1 -p AOMDV -e 52 -c 2 -a 0 -i 0 -k RTR
r -t 1.013076425 -s 1 -d -1 -p AOMDV -e 52 -c 2 -a 0 -i 0 -k RTR
r -t 1.013076500 -s 3 -d -1 -p AOMDV -e 52 -c 2 -a 0 -i 0 -k RTR
r -t 1.013076510 -s 4 -d -1 -p AOMDV -e 52 -c 2 -a 0 -i 0 -k RTR
r -t 1.013076563 -s 9 -d -1 -p AOMDV -e 52 -c 2 -a 0 -i 0 -k RTR
+ -t 1.013121563 -s 9 -d -1 -p AOMDV -e 110 -c 2 -a 0 -i 0 -k MAC 
- -t 1.013121563 -s 9 -d -1 -p AOMDV -e 110 -c 2 -a 0 -i 0 -k MAC
h -t 1.013121563 -s 9 -d -1 -p AOMDV -e 110 -c 2 -a 0 -i 0 -k MAC
+ -t 1.013217016 -s 6 -d -1 -p AOMDV -e 52 -c 2 -a 0 -i 0 -k RTR 
- -t 1.013217016 -s 6 -d -1 -p AOMDV -e 52 -c 2 -a 0 -i 0 -k RTR
h -t 1.013217016 -s 6 -d -1 -p AOMDV -e 52 -c 2 -a 0 -i 0 -k RTR
r -t 1.014001942 -s 6 -d -1 -p AOMDV -e 52 -c 2 -a 0 -i 0 -k MAC
r -t 1.014001977 -s 4 -d -1 -p AOMDV -e 52 -c 2 -a 0 -i 0 -k MAC
r -t 1.014002167 -s 7 -d -1 -p AOMDV -e 52 -c 2 -a 0 -i 0 -k MAC
r -t 1.014002231 -s 2 -d -1 -p AOMDV -e 52 -c 2 -a 0 -i 0 -k MAC
r -t 1.014002297 -s 5 -d -1 -p AOMDV -e 52 -c 2 -a 0 -i 0 -k MAC
r -t 1.014002299 -s 10 -d -1 -p AOMDV -e 52 -c 2 -a 0 -i 0 -k MAC
r -t 1.014026942 -s 6 -d -1 -p AOMDV -e 52 -c 2 -a 0 -i 0 -k RTR
r -t 1.014026977 -s 4 -d -1 -p AOMDV -e 52 -c 2 -a 0 -i 0 -k RTR
r -t 1.014027167 -s 7 -d -1 -p AOMDV -e 52 -c 2 -a 0 -i 0 -k RTR
r -t 1.014027231 -s 2 -d -1 -p AOMDV -e 52 -c 2 -a 0 -i 0 -k RTR
r -t 1.014027297 -s 5 -d -1 -p AOMDV -e 52 -c 2 -a 0 -i 0 -k RTR
r -t 1.014027299 -s 10 -d -1 -p AOMDV -e 52 -c 2 -a 0 -i 0 -k RTR
+ -t 1.014060814 -s 3 -d -1 -p AOMDV -e 52 -c 2 -a 0 -i 0 -k RTR 
- -t 1.014060814 -s 3 -d -1 -p AOMDV -e 52 -c 2 -a 0 -i 0 -k RTR
h -t 1.014060814 -s 3 -d -1 -p AOMDV -e 52 -c 2 -a 0 -i 0 -k RTR
+ -t 1.014071942 -s 6 -d -1 -p AOMDV -e 110 -c 2 -a 0 -i 0 -k MAC 
- -t 1.014071942 -s 6 -d -1 -p AOMDV -e 110 -c 2 -a 0 -i 0 -k MAC
h -t 1.014071942 -s 6 -d -1 -p AOMDV -e 110 -c 2 -a 0 -i 0 -k MAC
+ -t 1.014071977 -s 4 -d -1 -p AOMDV -e 110 -c 2 -a 0 -i 0 -k MAC 
- -t 1.014071977 -s 4 -d -1 -p AOMDV -e 110 -c 2 -a 0 -i 0 -k MAC
h -t 1.014071977 -s 4 -d -1 -p AOMDV -e 110 -c 2 -a 0 -i 0 -k MAC
d -t 1.014072367 -s 2 -d -1 -p AOMDV -e 110 -c 2 -a 0 -i 0 -k MAC
d -t 1.014072392 -s 9 -d -1 -p AOMDV -e 110 -c 2 -a 0 -i 0 -k MAC
d -t 1.014072660 -s 3 -d -1 -p AOMDV -e 110 -c 2 -a 0 -i 0 -k MAC
d -t 1.014072887 -s 0 -d -1 -p AOMDV -e 110 -c 2 -a 0 -i 0 -k MAC
d -t 1.014072988 -s 8 -d -1 -p AOMDV -e 110 -c 2 -a 0 -i 0 -k MAC
d -t 1.014073064 -s 11 -d -1 -p AOMDV -e 110 -c 2 -a 0 -i 0 -k MAC
r -t 1.014952299 -s 5 -d -1 -p AOMDV -e 52 -c 2 -a 0 -i 0 -k MAC
r -t 1.014952355 -s 7 -d -1 -p AOMDV -e 52 -c 2 -a 0 -i 0 -k MAC
d -t 1.014952367 -s 2 -d -1 -p AOMDV -e 110 -c 2 -a 0 -i 0 -k MAC
d -t 1.014952392 -s 9 -d -1 -p AOMDV -e 110 -c 2 -a 0 -i 0 -k MAC
r -t 1.014952405 -s 10 -d -1 -p AOMDV -e 52 -c 2 -a 0 -i 0 -k MAC
d -t 1.014952660 -s 3 -d -1 -p AOMDV -e 110 -c 2 -a 0 -i 0 -k MAC
r -t 1.014977299 -s 5 -d -1 -p AOMDV -e 52 -c 2 -a 0 -i 0 -k RTR
r -t 1.014977355 -s 7 -d -1 -p AOMDV -e 52 -c 2 -a 0 -i 0 -k RTR
r -t 1.014977405 -s 10 -d -1 -p AOMDV -e 52 -c 2 -a 0 -i 0 -k RTR
+ -t 1.015386367 -s 2 -d -1 -p AOMDV -e 110 -c 2 -a 0 -i 0 -k MAC 
- -t 1.015386367 -s 2 -d -1 -p AOMDV -e 110 -c 2 -a 0 -i 0 -k MAC
h -t 1.015386367 -s 2 -d -1 -p AOMDV -e 110 -c 2 -a 0 -i 0 -k MAC
+ -t 1.015386392 -s 9 -d -1 -p AOMDV -e 110 -c 2 -a 0 -i 0 -k MAC 
- -t 1.015386392 -s 9 -d -1 -p AOMDV -e 110 -c 2 -a 0 -i 0 -k MAC
h -t 1.015386392 -s 9 -d -1 -p AOMDV -e 110 -c 2 -a 0 -i 0 -k MAC
+ -t 1.015386710 -s 7 -d -1 -p AOMDV -e 110 -c 2 -a 0 -i 0 -k MAC 
- -t 1.015386710 -s 7 -d -1 -p AOMDV -e 110 -c 2 -a 0 -i 0 -k MAC
h -t 1.015386710 -s 7 -d -1 -p AOMDV -e 110 -c 2 -a 0 -i 0 -k MAC
d -t 1.015386771 -s 6 -d -1 -p AOMDV -e 110 -c 2 -a 0 -i 0 -k MAC
d -t 1.015386807 -s 4 -d -1 -p AOMDV -e 110 -c 2 -a 0 -i 0 -k MAC
d -t 1.015387088 -s 4 -d -1 -p AOMDV -e 110 -c 2 -a 0 -i 0 -k MAC
d -t 1.015387128 -s 10 -d -1 -p AOMDV -e 110 -c 2 -a 0 -i 0 -k MAC
d -t 1.015387166 -s 0 -d -1 -p AOMDV -e 110 -c 2 -a 0 -i 0 -k MAC
d -t 1.015387497 -s 8 -d -1 -p AOMDV -e 110 -c 2 -a 0 -i 0 -k MAC
d -t 1.015387535 -s 11 -d -1 -p AOMDV -e 110 -c 2 -a 0 -i 0 -k MAC
d -t 1.015387625 -s 11 -d -1 -p AOMDV -e 110 -c 2 -a 0 -i 0 -k MAC
d -t 1.015387939 -s 10 -d -1 -p AOMDV -e 110 -c 2 -a 0 -i 0 -k MAC
r -t 1.016266700 -s 3 -d -1 -p AOMDV -e 52 -c 2 -a 0 -i 0 -k MAC
d -t 1.016266771 -s 6 -d -1 -p AOMDV -e 110 -c 2 -a 0 -i 0 -k MAC
r -t 1.016266776 -s 5 -d -1 -p AOMDV -e 52 -c 2 -a 0 -i 0 -k MAC
r -t 1.016267045 -s 1 -d -1 -p AOMDV -e 52 -c 2 -a 0 -i 0 -k MAC
d -t 1.016267088 -s 4 -d -1 -p AOMDV -e 110 -c 2 -a 0 -i 0 -k MAC
d -t 1.016267166 -s 0 -d -1 -p AOMDV -e 110 -c 2 -a 0 -i 0 -k MAC
r -t 1.016291700 -s 3 -d -1 -p AOMDV -e 52 -c 2 -a 0 -i 0 -k RTR
r -t 1.016291776 -s 5 -d -1 -p AOMDV -e 52 -c 2 -a 0 -i 0 -k RTR
r -t 1.016292045 -s 1 -d -1 -p AOMDV -e 52 -c 2 -a 0 -i 0 -k RTR
+ -t 1.016782092 -s 8 -d -1 -p RTS -e 44 -c 2 -a 0 -i 0 -k MAC 
- -t 1.016782092 -s 8 -d -1 -p RTS -e 44 -c 2 -a 0 -i 0 -k MAC
h -t 1.016782092 -s 8 -d -1 -p RTS -e 44 -c 2 -a 0 -i 0 -k MAC
r -t 1.017134820 -s 6 -d -1 -p RTS -e 44 -c 2 -a 0 -i 0 -k MAC
+ -t 1.017144820 -s 6 -d -1 -p CTS -e 38 -c 2 -a 0 -i 0 -k MAC 
- -t 1.017144820 -s 6 -d -1 -p CTS -e 38 -c 2 -a 0 -i 0 -k MAC
h -t 1.017144820 -s 6 -d -1 -p CTS -e 38 -c 2 -a 0 -i 0 -k MAC
r -t 1.017449548 -s 8 -d -1 -p CTS -e 38 -c 2 -a 0 -i 0 -k MAC
+ -t 1.017459548 -s 8 -d 6 -p AOMDV -e 110 -c 2 -a 0 -i 0 -k MAC 
- -t 1.017459548 -s 8 -d 6 -p AOMDV -e 110 -c 2 -a 0 -i 0 -k MAC
h -t 1.017459548 -s 8 -d 6 -p AOMDV -e 110 -c 2 -a 0 -i 0 -k MAC
r -t 1.018340276 -s 6 -d 6 -p AOMDV -e 52 -c 2 -a 0 -i 0 -k MAC
+ -t 1.018350276 -s 6 -d -1 -p ACK -e 38 -c 2 -a 0 -i 0 -k MAC 
- -t 1.018350276 -s 6 -d -1 -p ACK -e 38 -c 2 -a 0 -i 0 -k MAC
h -t 1.018350276 -s 6 -d -1 -p ACK -e 38 -c 2 -a 0 -i 0 -k MAC
+ -t 1.018365276 -s 6 -d 7 -p AOMDV -e 52 -c 2 -a 0 -i 0 -k RTR 
- -t 1.018365276 -s 6 -d 7 -p AOMDV -e 52 -c 2 -a 0 -i 0 -k RTR
h -t 1.018365276 -s 6 -d 7 -p AOMDV -e 52 -c 2 -a 0 -i 0 -k RTR
r -t 1.018655004 -s 8 -d -1 -p ACK -e 38 -c 2 -a 0 -i 0 -k MAC
+ -t 1.018764276 -s 6 -d -1 -p ARP -e 86 -c 2 -a 0 -i 0 -k MAC 
- -t 1.018764276 -s 6 -d -1 -p ARP -e 86 -c 2 -a 0 -i 0 -k MAC
h -t 1.018764276 -s 6 -d -1 -p ARP -e 86 -c 2 -a 0 -i 0 -k MAC
r -t 1.019452633 -s 5 -d -1 -p ARP -e 28 -c 2 -a 0 -i 0 -k MAC
r -t 1.019452655 -s 9 -d -1 -p ARP -e 28 -c 2 -a 0 -i 0 -k MAC
r -t 1.019452662 -s 2 -d -1 -p ARP -e 28 -c 2 -a 0 -i 0 -k MAC
r -t 1.019452687 -s 4 -d -1 -p ARP -e 28 -c 2 -a 0 -i 0 -k MAC
r -t 1.019452740 -s 10 -d -1 -p ARP -e 28 -c 2 -a 0 -i 0 -k MAC
r -t 1.019452994 -s 3 -d -1 -p ARP -e 28 -c 2 -a 0 -i 0 -k MAC
r -t 1.019453004 -s 8 -d -1 -p ARP -e 28 -c 2 -a 0 -i 0 -k MAC
r -t 1.019453044 -s 7 -d -1 -p ARP -e 28 -c 2 -a 0 -i 0 -k MAC
+ -t 1.019602633 -s 5 -d -1 -p AOMDV -e 110 -c 2 -a 0 -i 0 -k MAC 
- -t 1.019602633 -s 5 -d -1 -p AOMDV -e 110 -c 2 -a 0 -i 0 -k MAC
h -t 1.019602633 -s 5 -d -1 -p AOMDV -e 110 -c 2 -a 0 -i 0 -k MAC
r -t 1.020482990 -s 6 -d -1 -p AOMDV -e 52 -c 2 -a 0 -i 0 -k MAC
r -t 1.020482995 -s 10 -d -1 -p AOMDV -e 52 -c 2 -a 0 -i 0 -k MAC
r -t 1.020483005 -s 8 -d -1 -p AOMDV -e 52 -c 2 -a 0 -i 0 -k MAC
r -t 1.020483041 -s 2 -d -1 -p AOMDV -e 52 -c 2 -a 0 -i 0 -k MAC
r -t 1.020483229 -s 1 -d -1 -p AOMDV -e 52 -c 2 -a 0 -i 0 -k MAC
r -t 1.020483304 -s 3 -d -1 -p AOMDV -e 52 -c 2 -a 0 -i 0 -k MAC
r -t 1.020483314 -s 4 -d -1 -p AOMDV -e 52 -c 2 -a 0 -i 0 -k MAC
r -t 1.020483366 -s 9 -d -1 -p AOMDV -e 52 -c 2 -a 0 -i 0 -k MAC
r -t 1.020507990 -s 6 -d -1 -p AOMDV -e 52 -c 2 -a 0 -i 0 -k RTR
r -t 1.020507995 -s 10 -d -1 -p AOMDV -e 52 -c 2 -a 0 -i 0 -k RTR
r -t 1.020508005 -s 8 -d -1 -p AOMDV -e 52 -c 2 -a 0 -i 0 -k RTR
r -t 1.020508041 -s 2 -d -1 -p AOMDV -e 52 -c 2 -a 0 -i 0 -k RTR
r -t 1.020508229 -s 1 -d -1 -p AOMDV -e 52 -c 2 -a 0 -i 0 -k RTR
r -t 1.020508304 -s 3 -d -1 -p AOMDV -e 52 -c 2 -a 0 -i 0 -k RTR
r -t 1.020508314 -s 4 -d -1 -p AOMDV -e 52 -c 2 -a 0 -i 0 -k RTR
r -t 1.020508366 -s 9 -d -1 -p AOMDV -e 52 -c 2 -a 0 -i 0 -k RTR
+ -t 1.020692995 -s 10 -d -1 -p AOMDV -e 110 -c 2 -a 0 -i 0 -k MAC 
- -t 1.020692995 -s 10 -d -1 -p AOMDV -e 110 -c 2 -a 0 -i 0 -k MAC
h -t 1.020692995 -s 10 -d -1 -p AOMDV -e 110 -c 2 -a 0 -i 0 -k MAC
r -t 1.021573356 -s 5 -d -1 -p AOMDV -e 52 -c 2 -a 0 -i 0 -k MAC
r -t 1.021573459 -s 6 -d -1 -p AOMDV -e 52 -c 2 -a 0 -i 0 -k MAC
r -t 1.021573575 -s 8 -d -1 -p AOMDV -e 52 -c 2 -a 0 -i 0 -k MAC
r -t 1.021573719 -s 2 -d -1 -p AOMDV -e 52 -c 2 -a 0 -i 0 -k MAC
r -t 1.021573731 -s 9 -d -1 -p AOMDV -e 52 -c 2 -a 0 -i 0 -k MAC
r -t 1.021598356 -s 5 -d -1 -p AOMDV -e 52 -c 2 -a 0 -i 0 -k RTR
r -t 1.021598459 -s 6 -d -1 -p AOMDV -e 52 -c 2 -a 0 -i 0 -k RTR
r -t 1.021598575 -s 8 -d -1 -p AOMDV -e 52 -c 2 -a 0 -i 0 -k RTR
r -t 1.021598719 -s 2 -d -1 -p AOMDV -e 52 -c 2 -a 0 -i 0 -k RTR
r -t 1.021598731 -s 9 -d -1 -p AOMDV -e 52 -c 2 -a 0 -i 0 -k RTR
+ -t 1.021682995 -s 10 -d -1 -p AOMDV -e 110 -c 2 -a 0 -i 0 -k MAC 
- -t 1.021682995 -s 10 -d -1 -p AOMDV -e 110 -c 2 -a 0 -i 0 -k MAC
h -t 1.021682995 -s 10 -d -1 -p AOMDV -e 110 -c 2 -a 0 -i 0 -k MAC
r -t 1.022563356 -s 5 -d -1 -p AOMDV -e 52 -c 2 -a 0 -i 0 -k MAC
r -t 1.022563459 -s 6 -d -1 -p AOMDV -e 52 -c 2 -a 0 -i 0 -k MAC
r -t 1.022563575 -s 8 -d -1 -p AOMDV -e 52 -c 2 -a 0 -i 0 -k MAC
r -t 1.022563719 -s 2 -d -1 -p AOMDV -e 52 -c 2 -a 0 -i 0 -k MAC
r -t 1.022563731 -s 9 -d -1 -p AOMDV -e 52 -c 2 -a 0 -i 0 -k MAC
r -t 1.022588356 -s 5 -d -1 -p AOMDV -e 52 -c 2 -a 0 -i 0 -k RTR
r -t 1.022588459 -s 6 -d -1 -p AOMDV -e 52 -c 2 -a 0 -i 0 -k RTR
r -t 1.022588575 -s 8 -d -1 -p AOMDV -e 52 -c 2 -a 0 -i 0 -k RTR
r -t 1.022588719 -s 2 -d -1 -p AOMDV -e 52 -c 2 -a 0 -i 0 -k RTR
r -t 1.022588731 -s 9 -d -1 -p AOMDV -e 52 -c 2 -a 0 -i 0 -k RTR
+ -t 1.022997890 -s 1 -d -1 -p ARP -e 86 -c 2 -a 0 -i 0 -k MAC 
- -t 1.022997890 -s 1 -d -1 -p ARP -e 86 -c 2 -a 0 -i 0 -k MAC
h -t 1.022997890 -s 1 -d -1 -p ARP -e 86 -c 2 -a 0 -i 0 -k MAC
r -t 1.023686235 -s 8 -d -1 -p ARP -e 28 -c 2 -a 0 -i 0 -k MAC
r -t 1.023686486 -s 5 -d -1 -p ARP -e 28 -c 2 -a 0 -i 0 -k MAC
r -t 1.023686526 -s 3 -d -1 -p ARP -e 28 -c 2 -a 0 -i 0 -k MAC
r -t 1.023686567 -s 2 -d -1 -p ARP -e 28 -c 2 -a 0 -i 0 -k MAC
+ -t 1.023756526 -s 3 -d -1 -p AOMDV -e 110 -c 2 -a 0 -i 0 -k MAC 
- -t 1.023756526 -s 3 -d -1 -p AOMDV -e 110 -c 2 -a 0 -i 0 -k MAC
h -t 1.023756526 -s 3 -d -1 -p AOMDV -e 110 -c 2 -a 0 -i 0 -k MAC
+ -t 1.024436046 -s 1 -d -1 -p AOMDV -e 52 -c 2 -a 0 -i 0 -k RTR 
- -t 1.024436046 -s 1 -d -1 -p AOMDV -e 52 -c 2 -a 0 -i 0 -k RTR
h -t 1.024436046 -s 1 -d -1 -p AOMDV -e 52 -c 2 -a 0 -i 0 -k RTR
r -t 1.024636859 -s 2 -d -1 -p AOMDV -e 52 -c 2 -a 0 -i 0 -k MAC
r -t 1.024637059 -s 11 -d -1 -p AOMDV -e 52 -c 2 -a 0 -i 0 -k MAC
r -t 1.024637130 -s 4 -d -1 -p AOMDV -e 52 -c 2 -a 0 -i 0 -k MAC
r -t 1.024637148 -s 0 -d -1 -p AOMDV -e 52 -c 2 -a 0 -i 0 -k MAC
r -t 1.024637163 -s 1 -d -1 -p AOMDV -e 52 -c 2 -a 0 -i 0 -k MAC
r -t 1.024637197 -s 5 -d -1 -p AOMDV -e 52 -c 2 -a 0 -i 0 -k MAC
r -t 1.024637244 -s 6 -d -1 -p AOMDV -e 52 -c 2 -a 0 -i 0 -k MAC
r -t 1.024637306 -s 8 -d -1 -p AOMDV -e 52 -c 2 -a 0 -i 0 -k MAC
r -t 1.024661859 -s 2 -d -1 -p AOMDV -e 52 -c 2 -a 0 -i 0 -k RTR
r -t 1.024662059 -s 11 -d -1 -p AOMDV -e 52 -c 2 -a 0 -i 0 -k RTR
r -t 1.024662130 -s 4 -d -1 -p AOMDV -e 52 -c 2 -a 0 -i 0 -k RTR
r -t 1.024662148 -s 0 -d -1 -p AOMDV -e 52 -c 2 -a 0 -i 0 -k RTR
r -t 1.024662163 -s 1 -d -1 -p AOMDV -e 52 -c 2 -a 0 -i 0 -k RTR
r -t 1.024662197 -s 5 -d -1 -p AOMDV -e 52 -c 2 -a 0 -i 0 -k RTR
r -t 1.024662244 -s 6 -d -1 -p AOMDV -e 52 -c 2 -a 0 -i 0 -k RTR
r -t 1.024662306 -s 8 -d -1 -p AOMDV -e 52 -c 2 -a 0 -i 0 -k RTR
+ -t 1.024767059 -s 11 -d -1 -p AOMDV -e 110 -c 2 -a 0 -i 0 -k MAC 
- -t 1.024767059 -s 11 -d -1 -p AOMDV -e 110 -c 2 -a 0 -i 0 -k MAC
h -t 1.024767059 -s 11 -d -1 -p AOMDV -e 110 -c 2 -a 0 -i 0 -k MAC