n -t * -s 0  -x 995 -y 556 -Z 0 -z 30  -v circle -c green
n -t * -s 1  -x 482 -y 637 -Z 0 -z 30  -v circle -c green
n -t * -s 2  -x 549 -y 950 -Z 0 -z 30  -v circle -c green
n -t * -s 3  -x 708 -y 473 -Z 0 -z 30  -v circle -c green
n -t * -s 4  -x 233 -y 949 -Z 0 -z 30  -v circle -c green
n -t * -s 5  -x 354 -y 555 -Z 0 -z 30  -v circle -c green
n -t * -s 6  -x 432 -y 362 -Z 0 -z 30  -v circle -c green
n -t * -s 7  -x 587 -y 512 -Z 0 -z 30  -v circle -c green
n -t * -s 8  -x 456 -y 471 -Z 0 -z 30  -v circle -c green
n -t * -s 9  -x 248 -y 174 -Z 0 -z 30  -v circle -c green
n -t * -s 10  -x 388 -y 272 -Z 0 -z 30  -v circle -c green
n -t * -s 11  -x 475 -y 985 -Z 0 -z 30  -v circle -c green
V -t * -v 1.0a5 -a 0
W -t * -x 1000 -y 1000
A -t * -n 1 -p 0 -o 0xffffffff -c 31 -a 1
A -t * -h 1 -m 2147483647 -s 0
n -t 0.000000 -s 1 -x 482.000000 -y 637.000000 -U 0.741025 -V -24.989015 -T 24.290673
n -t 0.000000 -s 4 -x 233.000000 -y 949.000000 -U 0.737932 -V -4.945246 -T 90.794273
n -t 0.000000 -s 5 -x 354.000000 -y 555.000000 -U -17.365367 -V -24.463116 -T 14.511643
n -t 0.000000 -s 8 -x 456.000000 -y 471.000000 -U -14.742378 -V -20.190648 -T 21.841795
n -t 0.000000 -s 11 -x 475.000000 -y 985.000000 -U 0.130845 -V -4.998288 -T 191.065434
n -t 0.500000 -s 0 -x 995.000000 -y 556.000000 -U -22.964628 -V -9.880580 -T 25.909411
n -t 0.500000 -s 3 -x 708.000000 -y 473.000000 -U -24.761767 -V -7.928109 -T 9.207744
n -t 0.500000 -s 6 -x 432.000000 -y 362.000000 -U -13.816577 -V 9.904655 -T 24.029106
n -t 0.500000 -s 7 -x 587.000000 -y 512.000000 -U 11.759304 -V -22.061704 -T 9.609412
n -t 0.500000 -s 10 -x 388.000000 -y 272.000000 -U 23.745433 -V 10.590298 -T 12.086535
v -t 0.5 -e sim_annotation 0.5 1 Starting FTP0 node5 to node6
v -t 0.5 -e sim_annotation 0.5 2 Starting FTP1 node7 to node9
n -t 0.700000 -s 2 -x 549.000000 -y 950.000000 -U -1.151030 -V -19.966851 -T 42.570559
n -t 0.700000 -s 9 -x 248.000000 -y 174.000000 -U 13.833688 -V 14.443998 -T 29.493220
+ -t 1.000000000 -s 5 -d -1 -p tcp -e 40 -c 2 -a 0 -i 0 -k AGT 
- -t 1.000000000 -s 5 -d -1 -p tcp -e 40 -c 2 -a 0 -i 0 -k AGT
h -t 1.000000000 -s 5 -d -1 -p tcp -e 40 -c 2 -a 0 -i 0 -k AGT
+ -t 1.000000000 -s 7 -d -1 -p tcp -e 40 -c 2 -a 0 -i 1 -k AGT 
- -t 1.000000000 -s 7 -d -1 -p tcp -e 40 -c 2 -a 0 -i 1 -k AGT
h -t 1.000000000 -s 7 -d -1 -p tcp -e 40 -c 2 -a 0 -i 1 -k AGT
+ -t 1.000000000 -s 5 -d -1 -p AOMDV -e 52 -c 2 -a 0 -i 0 -k RTR 
- -t 1.000000000 -s 5 -d -1 -p AOMDV -e 52 -c 2 -a 0 -i 0 -k RTR
h -t 1.000000000 -s 5 -d -1 -p AOMDV -e 52 -c 2 -a 0 -i 0 -k RTR
+ -t 1.000000000 -s 7 -d -1 -p AOMDV -e 52 -c 2 -a 0 -i 0 -k RTR 
- -t 1.000000000 -s 7 -d -1 -p AOMDV -e 52 -c 2 -a 0 -i 0 -k RTR
h -t 1.000000000 -s 7 -d -1 -p AOMDV -e 52 -c 2 -a 0 -i 0 -k RTR
+ -t 1.000095000 -s 7 -d -1 -p AOMDV -e 110 -c 2 -a 0 -i 0 -k MAC 
- -t 1.000095000 -s 7 -d -1 -p AOMDV -e 110 -c 2 -a 0 -i 0 -k MAC
h -t 1.000095000 -s 7 -d -1 -p AOMDV -e 110 -c 2 -a 0 -i 0 -k MAC
r -t 1.000975359 -s 3 -d -1 -p AOMDV -e 52 -c 2 -a 0 -i 0 -k MAC
r -t 1.000975521 -s 1 -d -1 -p AOMDV -e 52 -c 2 -a 0 -i 0 -k MAC
r -t 1.000975532 -s 8 -d -1 -p AOMDV -e 52 -c 2 -a 0 -i 0 -k MAC
r -t 1.000975716 -s 6 -d -1 -p AOMDV -e 52 -c 2 -a 0 -i 0 -k MAC
r -t 1.001000359 -s 3 -d -1 -p AOMDV -e 52 -c 2 -a 0 -i 0 -k RTR
r -t 1.001000521 -s 1 -d -1 -p AOMDV -e 52 -c 2 -a 0 -i 0 -k RTR
r -t 1.001000532 -s 8 -d -1 -p AOMDV -e 52 -c 2 -a 0 -i 0 -k RTR
r -t 1.001000716 -s 6 -d -1 -p AOMDV -e 52 -c 2 -a 0 -i 0 -k RTR
+ -t 1.001589860 -s 5 -d -1 -p AOMDV -e 110 -c 2 -a 0 -i 0 -k MAC 
- -t 1.001589860 -s 5 -d -1 -p AOMDV -e 110 -c 2 -a 0 -i 0 -k MAC
h -t 1.001589860 -s 5 -d -1 -p AOMDV -e 110 -c 2 -a 0 -i 0 -k MAC
r -t 1.002470298 -s 8 -d -1 -p AOMDV -e 52 -c 2 -a 0 -i 0 -k MAC
r -t 1.002470418 -s 1 -d -1 -p AOMDV -e 52 -c 2 -a 0 -i 0 -k MAC
r -t 1.002470480 -s 6 -d -1 -p AOMDV -e 52 -c 2 -a 0 -i 0 -k MAC
r -t 1.002495298 -s 8 -d -1 -p AOMDV -e 52 -c 2 -a 0 -i 0 -k RTR
r -t 1.002495418 -s 1 -d -1 -p AOMDV -e 52 -c 2 -a 0 -i 0 -k RTR
r -t 1.002495480 -s 6 -d -1 -p AOMDV -e 52 -c 2 -a 0 -i 0 -k RTR
+ -t 1.002495480 -s 6 -d 5 -p AOMDV -e 52 -c 2 -a 0 -i 0 -k RTR 
- -t 1.002495480 -s 6 -d 5 -p AOMDV -e 52 -c 2 -a 0 -i 0 -k RTR
h -t 1.002495480 -s 6 -d 5 -p AOMDV -e 52 -c 2 -a 0 -i 0 -k RTR
+ -t 1.002850480 -s 6 -d -1 -p ARP -e 86 -c 2 -a 0 -i 0 -k MAC 
- -t 1.002850480 -s 6 -d -1 -p ARP -e 86 -c 2 -a 0 -i 0 -k MAC
h -t 1.002850480 -s 6 -d -1 -p ARP -e 86 -c 2 -a 0 -i 0 -k MAC
r -t 1.003538764 -s 8 -d -1 -p ARP -e 28 -c 2 -a 0 -i 0 -k MAC
r -t 1.003538790 -s 10 -d -1 -p ARP -e 28 -c 2 -a 0 -i 0 -k MAC
r -t 1.003539099 -s 5 -d -1 -p ARP -e 28 -c 2 -a 0 -i 0 -k MAC
r -t 1.003539195 -s 7 -d -1 -p ARP -e 28 -c 2 -a 0 -i 0 -k MAC
+ -t 1.003809099 -s 5 -d -1 -p RTS -e 44 -c 2 -a 0 -i 0 -k MAC 
- -t 1.003809099 -s 5 -d -1 -p RTS -e 44 -c 2 -a 0 -i 0 -k MAC
h -t 1.003809099 -s 5 -d -1 -p RTS -e 44 -c 2 -a 0 -i 0 -k MAC
r -t 1.004161719 -s 6 -d -1 -p RTS -e 44 -c 2 -a 0 -i 0 -k MAC
+ -t 1.004171719 -s 6 -d -1 -p CTS -e 38 -c 2 -a 0 -i 0 -k MAC 
- -t 1.004171719 -s 6 -d -1 -p CTS -e 38 -c 2 -a 0 -i 0 -k MAC
h -t 1.004171719 -s 6 -d -1 -p CTS -e 38 -c 2 -a 0 -i 0 -k MAC
r -t 1.004476338 -s 5 -d -1 -p CTS -e 38 -c 2 -a 0 -i 0 -k MAC
+ -t 1.004486338 -s 5 -d -1 -p ARP -e 86 -c 2 -a 0 -i 0 -k MAC 
- -t 1.004486338 -s 5 -d -1 -p ARP -e 86 -c 2 -a 0 -i 0 -k MAC
h -t 1.004486338 -s 5 -d -1 -p ARP -e 86 -c 2 -a 0 -i 0 -k MAC
+ -t 1.004907555 -s 8 -d -1 -p AOMDV -e 52 -c 2 -a 0 -i 0 -k RTR 
- -t 1.004907555 -s 8 -d -1 -p AOMDV -e 52 -c 2 -a 0 -i 0 -k RTR
h -t 1.004907555 -s 8 -d -1 -p AOMDV -e 52 -c 2 -a 0 -i 0 -k RTR
r -t 1.005174958 -s 6 -d -1 -p ARP -e 28 -c 2 -a 0 -i 0 -k MAC
+ -t 1.005184958 -s 6 -d -1 -p ACK -e 38 -c 2 -a 0 -i 0 -k MAC 
- -t 1.005184958 -s 6 -d -1 -p ACK -e 38 -c 2 -a 0 -i 0 -k MAC
h -t 1.005184958 -s 6 -d -1 -p ACK -e 38 -c 2 -a 0 -i 0 -k MAC
r -t 1.005489577 -s 5 -d -1 -p ACK -e 38 -c 2 -a 0 -i 0 -k MAC
+ -t 1.005661518 -s 3 -d -1 -p AOMDV -e 52 -c 2 -a 0 -i 0 -k RTR 
- -t 1.005661518 -s 3 -d -1 -p AOMDV -e 52 -c 2 -a 0 -i 0 -k RTR
h -t 1.005661518 -s 3 -d -1 -p AOMDV -e 52 -c 2 -a 0 -i 0 -k RTR
+ -t 1.005678958 -s 6 -d -1 -p RTS -e 44 -c 2 -a 0 -i 0 -k MAC 
- -t 1.005678958 -s 6 -d -1 -p RTS -e 44 -c 2 -a 0 -i 0 -k MAC
h -t 1.005678958 -s 6 -d -1 -p RTS -e 44 -c 2 -a 0 -i 0 -k MAC
r -t 1.006031577 -s 5 -d -1 -p RTS -e 44 -c 2 -a 0 -i 0 -k MAC
+ -t 1.006041577 -s 5 -d -1 -p CTS -e 38 -c 2 -a 0 -i 0 -k MAC 
- -t 1.006041577 -s 5 -d -1 -p CTS -e 38 -c 2 -a 0 -i 0 -k MAC
h -t 1.006041577 -s 5 -d -1 -p CTS -e 38 -c 2 -a 0 -i 0 -k MAC
r -t 1.006346196 -s 6 -d -1 -p CTS -e 38 -c 2 -a 0 -i 0 -k MAC
+ -t 1.006356196 -s 6 -d 5 -p AOMDV -e 110 -c 2 -a 0 -i 0 -k MAC 
- -t 1.006356196 -s 6 -d 5 -p AOMDV -e 110 -c 2 -a 0 -i 0 -k MAC
h -t 1.006356196 -s 6 -d 5 -p AOMDV -e 110 -c 2 -a 0 -i 0 -k MAC
r -t 1.007236816 -s 5 -d 5 -p AOMDV -e 52 -c 2 -a 0 -i 0 -k MAC
+ -t 1.007246816 -s 5 -d -1 -p ACK -e 38 -c 2 -a 0 -i 0 -k MAC 
- -t 1.007246816 -s 5 -d -1 -p ACK -e 38 -c 2 -a 0 -i 0 -k MAC
h -t 1.007246816 -s 5 -d -1 -p ACK -e 38 -c 2 -a 0 -i 0 -k MAC
+ -t 1.007261816 -s 5 -d 6 -p tcp -e 60 -c 2 -a 0 -i 0 -k RTR 
- -t 1.007261816 -s 5 -d 6 -p tcp -e 60 -c 2 -a 0 -i 0 -k RTR
h -t 1.007261816 -s 5 -d 6 -p tcp -e 60 -c 2 -a 0 -i 0 -k RTR
r -t 1.007551435 -s 6 -d -1 -p ACK -e 38 -c 2 -a 0 -i 0 -k MAC
+ -t 1.007621254 -s 8 -d -1 -p AOMDV -e 110 -c 2 -a 0 -i 0 -k MAC 
- -t 1.007621254 -s 8 -d -1 -p AOMDV -e 110 -c 2 -a 0 -i 0 -k MAC
h -t 1.007621254 -s 8 -d -1 -p AOMDV -e 110 -c 2 -a 0 -i 0 -k MAC
+ -t 1.007923590 -s 1 -d -1 -p AOMDV -e 52 -c 2 -a 0 -i 0 -k RTR 
- -t 1.007923590 -s 1 -d -1 -p AOMDV -e 52 -c 2 -a 0 -i 0 -k RTR
h -t 1.007923590 -s 1 -d -1 -p AOMDV -e 52 -c 2 -a 0 -i 0 -k RTR
r -t 1.008501538 -s 6 -d -1 -p AOMDV -e 52 -c 2 -a 0 -i 0 -k MAC
r -t 1.008501693 -s 5 -d -1 -p AOMDV -e 52 -c 2 -a 0 -i 0 -k MAC
r -t 1.008501787 -s 7 -d -1 -p AOMDV -e 52 -c 2 -a 0 -i 0 -k MAC
r -t 1.008501809 -s 1 -d -1 -p AOMDV -e 52 -c 2 -a 0 -i 0 -k MAC
r -t 1.008501848 -s 10 -d -1 -p AOMDV -e 52 -c 2 -a 0 -i 0 -k MAC
r -t 1.008526538 -s 6 -d -1 -p AOMDV -e 52 -c 2 -a 0 -i 0 -k RTR
+ -t 1.008526538 -s 6 -d 8 -p AOMDV -e 52 -c 2 -a 0 -i 0 -k RTR 
- -t 1.008526538 -s 6 -d 8 -p AOMDV -e 52 -c 2 -a 0 -i 0 -k RTR
h -t 1.008526538 -s 6 -d 8 -p AOMDV -e 52 -c 2 -a 0 -i 0 -k RTR
r -t 1.008526693 -s 5 -d -1 -p AOMDV -e 52 -c 2 -a 0 -i 0 -k RTR
r -t 1.008526787 -s 7 -d -1 -p AOMDV -e 52 -c 2 -a 0 -i 0 -k RTR
r -t 1.008526809 -s 1 -d -1 -p AOMDV -e 52 -c 2 -a 0 -i 0 -k RTR
r -t 1.008526848 -s 10 -d -1 -p AOMDV -e 52 -c 2 -a 0 -i 0 -k RTR
+ -t 1.008631538 -s 6 -d -1 -p ARP -e 86 -c 2 -a 0 -i 0 -k MAC 
- -t 1.008631538 -s 6 -d -1 -p ARP -e 86 -c 2 -a 0 -i 0 -k MAC
h -t 1.008631538 -s 6 -d -1 -p ARP -e 86 -c 2 -a 0 -i 0 -k MAC
r -t 1.009319822 -s 8 -d -1 -p ARP -e 28 -c 2 -a 0 -i 0 -k MAC
r -t 1.009319848 -s 10 -d -1 -p ARP -e 28 -c 2 -a 0 -i 0 -k MAC
r -t 1.009320157 -s 5 -d -1 -p ARP -e 28 -c 2 -a 0 -i 0 -k MAC
r -t 1.009320254 -s 7 -d -1 -p ARP -e 28 -c 2 -a 0 -i 0 -k MAC
+ -t 1.009398968 -s 6 -d -1 -p AOMDV -e 52 -c 2 -a 0 -i 0 -k RTR 
- -t 1.009398968 -s 6 -d -1 -p AOMDV -e 52 -c 2 -a 0 -i 0 -k RTR
h -t 1.009398968 -s 6 -d -1 -p AOMDV -e 52 -c 2 -a 0 -i 0 -k RTR
+ -t 1.009429538 -s 6 -d -1 -p AOMDV -e 110 -c 2 -a 0 -i 0 -k MAC 
- -t 1.009429538 -s 6 -d -1 -p AOMDV -e 110 -c 2 -a 0 -i 0 -k MAC
h -t 1.009429538 -s 6 -d -1 -p AOMDV -e 110 -c 2 -a 0 -i 0 -k MAC
+ -t 1.009621205 -s 8 -d -1 -p AOMDV -e 52 -c 2 -a 0 -i 0 -k RTR 
- -t 1.009621205 -s 8 -d -1 -p AOMDV -e 52 -c 2 -a 0 -i 0 -k RTR
h -t 1.009621205 -s 8 -d -1 -p AOMDV -e 52 -c 2 -a 0 -i 0 -k RTR
+ -t 1.009647161 -s 10 -d -1 -p AOMDV -e 52 -c 2 -a 0 -i 0 -k RTR 
- -t 1.009647161 -s 10 -d -1 -p AOMDV -e 52 -c 2 -a 0 -i 0 -k RTR
h -t 1.009647161 -s 10 -d -1 -p AOMDV -e 52 -c 2 -a 0 -i 0 -k RTR
r -t 1.010309822 -s 8 -d -1 -p AOMDV -e 52 -c 2 -a 0 -i 0 -k MAC
r -t 1.010309848 -s 10 -d -1 -p AOMDV -e 52 -c 2 -a 0 -i 0 -k MAC
r -t 1.010310157 -s 5 -d -1 -p AOMDV -e 52 -c 2 -a 0 -i 0 -k MAC
r -t 1.010310254 -s 7 -d -1 -p AOMDV -e 52 -c 2 -a 0 -i 0 -k MAC
r -t 1.010334822 -s 8 -d -1 -p AOMDV -e 52 -c 2 -a 0 -i 0 -k RTR
r -t 1.010334848 -s 10 -d -1 -p AOMDV -e 52 -c 2 -a 0 -i 0 -k RTR
r -t 1.010335157 -s 5 -d -1 -p AOMDV -e 52 -c 2 -a 0 -i 0 -k RTR
r -t 1.010335254 -s 7 -d -1 -p AOMDV -e 52 -c 2 -a 0 -i 0 -k RTR
+ -t 1.010420157 -s 5 -d -1 -p RTS -e 44 -c 2 -a 0 -i 0 -k MAC 
- -t 1.010420157 -s 5 -d -1 -p RTS -e 44 -c 2 -a 0 -i 0 -k MAC
h -t 1.010420157 -s 5 -d -1 -p RTS -e 44 -c 2 -a 0 -i 0 -k MAC
r -t 1.010772776 -s 6 -d -1 -p RTS -e 44 -c 2 -a 0 -i 0 -k MAC
+ -t 1.010782776 -s 6 -d -1 -p CTS -e 38 -c 2 -a 0 -i 0 -k MAC 
- -t 1.010782776 -s 6 -d -1 -p CTS -e 38 -c 2 -a 0 -i 0 -k MAC
h -t 1.010782776 -s 6 -d -1 -p CTS -e 38 -c 2 -a 0 -i 0 -k MAC
+ -t 1.011006483 -s 1 -d -1 -p AOMDV -e 52 -c 2 -a 0 -i 0 -k RTR 
- -t 1.011006483 -s 1 -d -1 -p AOMDV -e 52 -c 2 -a 0 -i 0 -k RTR
h -t 1.011006483 -s 1 -d -1 -p AOMDV -e 52 -c 2 -a 0 -i 0 -k RTR
r -t 1.011087395 -s 5 -d -1 -p CTS -e 38 -c 2 -a 0 -i 0 -k MAC
+ -t 1.011097395 -s 5 -d 6 -p tcp -e 118 -c 2 -a 0 -i 0 -k MAC 
- -t 1.011097395 -s 5 -d 6 -p tcp -e 118 -c 2 -a 0 -i 0 -k MAC
h -t 1.011097395 -s 5 -d 6 -p tcp -e 118 -c 2 -a 0 -i 0 -k MAC
+ -t 1.011566192 -s 5 -d -1 -p AOMDV -e 52 -c 2 -a 0 -i 0 -k RTR 
- -t 1.011566192 -s 5 -d -1 -p AOMDV -e 52 -c 2 -a 0 -i 0 -k RTR
h -t 1.011566192 -s 5 -d -1 -p AOMDV -e 52 -c 2 -a 0 -i 0 -k RTR
r -t 1.012042014 -s 6 -d 6 -p tcp -e 60 -c 2 -a 0 -i 0 -k MAC
+ -t 1.012052014 -s 6 -d -1 -p ACK -e 38 -c 2 -a 0 -i 0 -k MAC 
- -t 1.012052014 -s 6 -d -1 -p ACK -e 38 -c 2 -a 0 -i 0 -k MAC
h -t 1.012052014 -s 6 -d -1 -p ACK -e 38 -c 2 -a 0 -i 0 -k MAC
r -t 1.012067014 -s 6 -d 6 -p tcp -e 60 -c 2 -a 0 -i 0 -k AGT
+ -t 1.012067014 -s 6 -d -1 -p ack -e 40 -c 2 -a 0 -i 2 -k AGT 
- -t 1.012067014 -s 6 -d -1 -p ack -e 40 -c 2 -a 0 -i 2 -k AGT
h -t 1.012067014 -s 6 -d -1 -p ack -e 40 -c 2 -a 0 -i 2 -k AGT
+ -t 1.012067014 -s 6 -d 5 -p ack -e 60 -c 2 -a 0 -i 2 -k RTR 
- -t 1.012067014 -s 6 -d 5 -p ack -e 60 -c 2 -a 0 -i 2 -k RTR
h -t 1.012067014 -s 6 -d 5 -p ack -e 60 -c 2 -a 0 -i 2 -k RTR
r -t 1.012356632 -s 5 -d -1 -p ACK -e 38 -c 2 -a 0 -i 0 -k MAC
+ -t 1.012446297 -s 8 -d -1 -p RTS -e 44 -c 2 -a 0 -i 0 -k MAC 
- -t 1.012446297 -s 8 -d -1 -p RTS -e 44 -c 2 -a 0 -i 0 -k MAC
h -t 1.012446297 -s 8 -d -1 -p RTS -e 44 -c 2 -a 0 -i 0 -k MAC
r -t 1.012798581 -s 6 -d -1 -p RTS -e 44 -c 2 -a 0 -i 0 -k MAC
+ -t 1.012808581 -s 6 -d -1 -p CTS -e 38 -c 2 -a 0 -i 0 -k MAC 
- -t 1.012808581 -s 6 -d -1 -p CTS -e 38 -c 2 -a 0 -i 0 -k MAC
h -t 1.012808581 -s 6 -d -1 -p CTS -e 38 -c 2 -a 0 -i 0 -k MAC
r -t 1.013112864 -s 8 -d -1 -p CTS -e 38 -c 2 -a 0 -i 0 -k MAC
+ -t 1.013122864 -s 8 -d -1 -p ARP -e 86 -c 2 -a 0 -i 0 -k MAC 
- -t 1.013122864 -s 8 -d -1 -p ARP -e 86 -c 2 -a 0 -i 0 -k MAC
h -t 1.013122864 -s 8 -d -1 -p ARP -e 86 -c 2 -a 0 -i 0 -k MAC
+ -t 1.013691476 -s 10 -d -1 -p AOMDV -e 52 -c 2 -a 0 -i 0 -k RTR 
- -t 1.013691476 -s 10 -d -1 -p AOMDV -e 52 -c 2 -a 0 -i 0 -k RTR
h -t 1.013691476 -s 10 -d -1 -p AOMDV -e 52 -c 2 -a 0 -i 0 -k RTR
r -t 1.013811147 -s 6 -d -1 -p ARP -e 28 -c 2 -a 0 -i 0 -k MAC
+ -t 1.013821147 -s 6 -d -1 -p ACK -e 38 -c 2 -a 0 -i 0 -k MAC 
- -t 1.013821147 -s 6 -d -1 -p ACK -e 38 -c 2 -a 0 -i 0 -k MAC
h -t 1.013821147 -s 6 -d -1 -p ACK -e 38 -c 2 -a 0 -i 0 -k MAC
r -t 1.014125431 -s 8 -d -1 -p ACK -e 38 -c 2 -a 0 -i 0 -k MAC
+ -t 1.014235457 -s 10 -d -1 -p AOMDV -e 110 -c 2 -a 0 -i 0 -k MAC 
- -t 1.014235457 -s 10 -d -1 -p AOMDV -e 110 -c 2 -a 0 -i 0 -k MAC
h -t 1.014235457 -s 10 -d -1 -p AOMDV -e 110 -c 2 -a 0 -i 0 -k MAC
r -t 1.015115767 -s 6 -d -1 -p AOMDV -e 52 -c 2 -a 0 -i 0 -k MAC
r -t 1.015116050 -s 8 -d -1 -p AOMDV -e 52 -c 2 -a 0 -i 0 -k MAC
r -t 1.015116050 -s 9 -d -1 -p AOMDV -e 52 -c 2 -a 0 -i 0 -k MAC
r -t 1.015140767 -s 6 -d -1 -p AOMDV -e 52 -c 2 -a 0 -i 0 -k RTR
r -t 1.015141050 -s 8 -d -1 -p AOMDV -e 52 -c 2 -a 0 -i 0 -k RTR
r -t 1.015141050 -s 9 -d -1 -p AOMDV -e 52 -c 2 -a 0 -i 0 -k RTR
+ -t 1.015345767 -s 6 -d -1 -p RTS -e 44 -c 2 -a 0 -i 0 -k MAC 
- -t 1.015345767 -s 6 -d -1 -p RTS -e 44 -c 2 -a 0 -i 0 -k MAC
h -t 1.015345767 -s 6 -d -1 -p RTS -e 44 -c 2 -a 0 -i 0 -k MAC
r -t 1.015698386 -s 5 -d -1 -p RTS -e 44 -c 2 -a 0 -i 0 -k MAC
+ -t 1.015708386 -s 5 -d -1 -p CTS -e 38 -c 2 -a 0 -i 0 -k MAC 
- -t 1.015708386 -s 5 -d -1 -p CTS -e 38 -c 2 -a 0 -i 0 -k MAC
h -t 1.015708386 -s 5 -d -1 -p CTS -e 38 -c 2 -a 0 -i 0 -k MAC
r -t 1.016013004 -s 6 -d -1 -p CTS -e 38 -c 2 -a 0 -i 0 -k MAC
+ -t 1.016023004 -s 6 -d 5 -p ack -e 118 -c 2 -a 0 -i 2 -k MAC 
- -t 1.016023004 -s 6 -d 5 -p ack -e 118 -c 2 -a 0 -i 2 -k MAC
h -t 1.016023004 -s 6 -d 5 -p ack -e 118 -c 2 -a 0 -i 2 -k MAC
r -t 1.016967622 -s 5 -d 5 -p ack -e 60 -c 2 -a 0 -i 2 -k MAC
+ -t 1.016977622 -s 5 -d -1 -p ACK -e 38 -c 2 -a 0 -i 0 -k MAC 
- -t 1.016977622 -s 5 -d -1 -p ACK -e 38 -c 2 -a 0 -i 0 -k MAC
h -t 1.016977622 -s 5 -d -1 -p ACK -e 38 -c 2 -a 0 -i 0 -k MAC
r -t 1.016992622 -s 5 -d 5 -p ack -e 60 -c 2 -a 0 -i 2 -k AGT
+ -t 1.016992622 -s 5 -d -1 -p tcp -e 1540 -c 2 -a 0 -i 3 -k AGT 
- -t 1.016992622 -s 5 -d -1 -p tcp -e 1540 -c 2 -a 0 -i 3 -k AGT
h -t 1.016992622 -s 5 -d -1 -p tcp -e 1540 -c 2 -a 0 -i 3 -k AGT
+ -t 1.016992622 -s 5 -d -1 -p tcp -e 1540 -c 2 -a 0 -i 4 -k AGT 
- -t 1.016992622 -s 5 -d -1 -p tcp -e 1540 -c 2 -a 0 -i 4 -k AGT
h -t 1.016992622 -s 5 -d -1 -p tcp -e 1540 -c 2 -a 0 -i 4 -k AGT
+ -t 1.016992622 -s 5 -d 6 -p tcp -e 1560 -c 2 -a 0 -i 3 -k RTR 
- -t 1.016992622 -s 5 -d 6 -p tcp -e 1560 -c 2 -a 0 -i 3 -k RTR
h -t 1.016992622 -s 5 -d 6 -p tcp -e 1560 -c 2 -a 0 -i 3 -k RTR
+ -t 1.016992622 -s 5 -d 6 -p tcp -e 1560 -c 2 -a 0 -i 4 -k RTR 
- -t 1.016992622 -s 5 -d 6 -p tcp -e 1560 -c 2 -a 0 -i 4 -k RTR
h -t 1.016992622 -s 5 -d 6 -p tcp -e 1560 -c 2 -a 0 -i 4 -k RTR
r -t 1.017282241 -s 6 -d -1 -p ACK -e 38 -c 2 -a 0 -i 0 -k MAC
+ -t 1.017372061 -s 8 -d -1 -p AOMDV -e 110 -c 2 -a 0 -i 0 -k MAC 
- -t 1.017372061 -s 8 -d -1 -p AOMDV -e 110 -c 2 -a 0 -i 0 -k MAC
h -t 1.017372061 -s 8 -d -1 -p AOMDV -e 110 -c 2 -a 0 -i 0 -k MAC
+ -t 1.017440265 -s 7 -d -1 -p AOMDV -e 52 -c 2 -a 0 -i 0 -k RTR 
- -t 1.017440265 -s 7 -d -1 -p AOMDV -e 52 -c 2 -a 0 -i 0 -k RTR
h -t 1.017440265 -s 7 -d -1 -p AOMDV -e 52 -c 2 -a 0 -i 0 -k RTR
r -t 1.018252344 -s 6 -d -1 -p AOMDV -e 52 -c 2 -a 0 -i 0 -k MAC
r -t 1.018252499 -s 5 -d -1 -p AOMDV -e 52 -c 2 -a 0 -i 0 -k MAC
r -t 1.018252595 -s 7 -d -1 -p AOMDV -e 52 -c 2 -a 0 -i 0 -k MAC
r -t 1.018252616 -s 1 -d -1 -p AOMDV -e 52 -c 2 -a 0 -i 0 -k MAC
r -t 1.018252653 -s 10 -d -1 -p AOMDV -e 52 -c 2 -a 0 -i 0 -k MAC
r -t 1.018277344 -s 6 -d -1 -p AOMDV -e 52 -c 2 -a 0 -i 0 -k RTR
r -t 1.018277499 -s 5 -d -1 -p AOMDV -e 52 -c 2 -a 0 -i 0 -k RTR
r -t 1.018277595 -s 7 -d -1 -p AOMDV -e 52 -c 2 -a 0 -i 0 -k RTR
r -t 1.018277616 -s 1 -d -1 -p AOMDV -e 52 -c 2 -a 0 -i 0 -k RTR
r -t 1.018277653 -s 10 -d -1 -p AOMDV -e 52 -c 2 -a 0 -i 0 -k RTR
+ -t 1.018342499 -s 5 -d -1 -p AOMDV -e 110 -c 2 -a 0 -i 0 -k MAC 
- -t 1.018342499 -s 5 -d -1 -p AOMDV -e 110 -c 2 -a 0 -i 0 -k MAC
h -t 1.018342499 -s 5 -d -1 -p AOMDV -e 110 -c 2 -a 0 -i 0 -k MAC
r -t 1.019222938 -s 8 -d -1 -p AOMDV -e 52 -c 2 -a 0 -i 0 -k MAC
r -t 1.019223058 -s 1 -d -1 -p AOMDV -e 52 -c 2 -a 0 -i 0 -k MAC
r -t 1.019223117 -s 6 -d -1 -p AOMDV -e 52 -c 2 -a 0 -i 0 -k MAC
r -t 1.019247938 -s 8 -d -1 -p AOMDV -e 52 -c 2 -a 0 -i 0 -k RTR
r -t 1.019248058 -s 1 -d -1 -p AOMDV -e 52 -c 2 -a 0 -i 0 -k RTR
r -t 1.019248117 -s 6 -d -1 -p AOMDV -e 52 -c 2 -a 0 -i 0 -k RTR
+ -t 1.019413117 -s 6 -d -1 -p RTS -e 44 -c 2 -a 0 -i 0 -k MAC 
- -t 1.019413117 -s 6 -d -1 -p RTS -e 44 -c 2 -a 0 -i 0 -k MAC
h -t 1.019413117 -s 6 -d -1 -p RTS -e 44 -c 2 -a 0 -i 0 -k MAC
r -t 1.019765400 -s 8 -d -1 -p RTS -e 44 -c 2 -a 0 -i 0 -k MAC
+ -t 1.019775400 -s 8 -d -1 -p CTS -e 38 -c 2 -a 0 -i 0 -k MAC 
- -t 1.019775400 -s 8 -d -1 -p CTS -e 38 -c 2 -a 0 -i 0 -k MAC
h -t 1.019775400 -s 8 -d -1 -p CTS -e 38 -c 2 -a 0 -i 0 -k MAC
r -t 1.020079683 -s 6 -d -1 -p CTS -e 38 -c 2 -a 0 -i 0 -k MAC
+ -t 1.020089683 -s 6 -d 8 -p AOMDV -e 110 -c 2 -a 0 -i 0 -k MAC 
- -t 1.020089683 -s 6 -d 8 -p AOMDV -e 110 -c 2 -a 0 -i 0 -k MAC
h -t 1.020089683 -s 6 -d 8 -p AOMDV -e 110 -c 2 -a 0 -i 0 -k MAC
+ -t 1.020589270 -s 9 -d -1 -p AOMDV -e 52 -c 2 -a 0 -i 0 -k RTR 
- -t 1.020589270 -s 9 -d -1 -p AOMDV -e 52 -c 2 -a 0 -i 0 -k RTR
h -t 1.020589270 -s 9 -d -1 -p AOMDV -e 52 -c 2 -a 0 -i 0 -k RTR
r -t 1.020969966 -s 8 -d 8 -p AOMDV -e 52 -c 2 -a 0 -i 0 -k MAC
+ -t 1.020979966 -s 8 -d -1 -p ACK -e 38 -c 2 -a 0 -i 0 -k MAC 
- -t 1.020979966 -s 8 -d -1 -p ACK -e 38 -c 2 -a 0 -i 0 -k MAC
h -t 1.020979966 -s 8 -d -1 -p ACK -e 38 -c 2 -a 0 -i 0 -k MAC
+ -t 1.020994966 -s 8 -d 5 -p AOMDV -e 52 -c 2 -a 0 -i 0 -k RTR 
- -t 1.020994966 -s 8 -d 5 -p AOMDV -e 52 -c 2 -a 0 -i 0 -k RTR
h -t 1.020994966 -s 8 -d 5 -p AOMDV -e 52 -c 2 -a 0 -i 0 -k RTR
r -t 1.021284248 -s 6 -d -1 -p ACK -e 38 -c 2 -a 0 -i 0 -k MAC
+ -t 1.021414404 -s 5 -d -1 -p RTS -e 44 -c 2 -a 0 -i 0 -k MAC 
- -t 1.021414404 -s 5 -d -1 -p RTS -e 44 -c 2 -a 0 -i 0 -k MAC
h -t 1.021414404 -s 5 -d -1 -p RTS -e 44 -c 2 -a 0 -i 0 -k MAC
r -t 1.021767022 -s 6 -d -1 -p RTS -e 44 -c 2 -a 0 -i 0 -k MAC
+ -t 1.021777022 -s 6 -d -1 -p CTS -e 38 -c 2 -a 0 -i 0 -k MAC 
- -t 1.021777022 -s 6 -d -1 -p CTS -e 38 -c 2 -a 0 -i 0 -k MAC
h -t 1.021777022 -s 6 -d -1 -p CTS -e 38 -c 2 -a 0 -i 0 -k MAC
r -t 1.022081640 -s 5 -d -1 -p CTS -e 38 -c 2 -a 0 -i 0 -k MAC
+ -t 1.022091640 -s 5 -d 6 -p tcp -e 1618 -c 2 -a 0 -i 3 -k MAC 
- -t 1.022091640 -s 5 -d 6 -p tcp -e 1618 -c 2 -a 0 -i 3 -k MAC
h -t 1.022091640 -s 5 -d 6 -p tcp -e 1618 -c 2 -a 0 -i 3 -k MAC
r -t 1.035036258 -s 6 -d 6 -p tcp -e 1560 -c 2 -a 0 -i 3 -k MAC
+ -t 1.035046258 -s 6 -d -1 -p ACK -e 38 -c 2 -a 0 -i 0 -k MAC 
- -t 1.035046258 -s 6 -d -1 -p ACK -e 38 -c 2 -a 0 -i 0 -k MAC
h -t 1.035046258 -s 6 -d -1 -p ACK -e 38 -c 2 -a 0 -i 0 -k MAC
r -t 1.035061258 -s 6 -d 6 -p tcp -e 1560 -c 2 -a 0 -i 3 -k AGT
+ -t 1.035061258 -s 6 -d -1 -p ack -e 40 -c 2 -a 0 -i 5 -k AGT 
- -t 1.035061258 -s 6 -d -1 -p ack -e 40 -c 2 -a 0 -i 5 -k AGT
h -t 1.035061258 -s 6 -d -1 -p ack -e 40 -c 2 -a 0 -i 5 -k AGT
+ -t 1.035061258 -s 6 -d 5 -p ack -e 60 -c 2 -a 0 -i 5 -k RTR 
- -t 1.035061258 -s 6 -d 5 -p ack -e 60 -c 2 -a 0 -i 5 -k RTR
h -t 1.035061258 -s 6 -d 5 -p ack -e 60 -c 2 -a 0 -i 5 -k RTR
r -t 1.035350874 -s 5 -d -1 -p ACK -e 38 -c 2 -a 0 -i 0 -k MAC
+ -t 1.035620539 -s 8 -d -1 -p ARP -e 86 -c 2 -a 0 -i 0 -k MAC 
- -t 1.035620539 -s 8 -d -1 -p ARP -e 86 -c 2 -a 0 -i 0 -k MAC
h -t 1.035620539 -s 8 -d -1 -p ARP -e 86 -c 2 -a 0 -i 0 -k MAC
r -t 1.036308820 -s 6 -d -1 -p ARP -e 28 -c 2 -a 0 -i 0 -k MAC
r -t 1.036308977 -s 5 -d -1 -p ARP -e 28 -c 2 -a 0 -i 0 -k MAC
r -t 1.036309074 -s 7 -d -1 -p ARP -e 28 -c 2 -a 0 -i 0 -k MAC
r -t 1.036309093 -s 1 -d -1 -p ARP -e 28 -c 2 -a 0 -i 0 -k MAC
r -t 1.036309129 -s 10 -d -1 -p ARP -e 28 -c 2 -a 0 -i 0 -k MAC
+ -t 1.036378820 -s 6 -d -1 -p RTS -e 44 -c 2 -a 0 -i 0 -k MAC 
- -t 1.036378820 -s 6 -d -1 -p RTS -e 44 -c 2 -a 0 -i 0 -k MAC
h -t 1.036378820 -s 6 -d -1 -p RTS -e 44 -c 2 -a 0 -i 0 -k MAC
+ -t 1.036379129 -s 10 -d -1 -p AOMDV -e 110 -c 2 -a 0 -i 0 -k MAC 
- -t 1.036379129 -s 10 -d -1 -p AOMDV -e 110 -c 2 -a 0 -i 0 -k MAC
h -t 1.036379129 -s 10 -d -1 -p AOMDV -e 110 -c 2 -a 0 -i 0 -k MAC
d -t 1.036379996 -s 5 -d -1 -p RTS -e 44 -c 2 -a 0 -i 0 -k MAC
d -t 1.037259722 -s 9 -d -1 -p AOMDV -e 110 -c 2 -a 0 -i 0 -k MAC
+ -t 1.037694110 -s 7 -d -1 -p AOMDV -e 110 -c 2 -a 0 -i 0 -k MAC 
- -t 1.037694110 -s 7 -d -1 -p AOMDV -e 110 -c 2 -a 0 -i 0 -k MAC
h -t 1.037694110 -s 7 -d -1 -p AOMDV -e 110 -c 2 -a 0 -i 0 -k MAC
r -t 1.038574463 -s 3 -d -1 -p AOMDV -e 52 -c 2 -a 0 -i 0 -k MAC
r -t 1.038574632 -s 1 -d -1 -p AOMDV -e 52 -c 2 -a 0 -i 0 -k MAC
r -t 1.038574645 -s 8 -d -1 -p AOMDV -e 52 -c 2 -a 0 -i 0 -k MAC
r -t 1.038574825 -s 6 -d -1 -p AOMDV -e 52 -c 2 -a 0 -i 0 -k MAC
r -t 1.038599463 -s 3 -d -1 -p AOMDV -e 52 -c 2 -a 0 -i 0 -k RTR
r -t 1.038599632 -s 1 -d -1 -p AOMDV -e 52 -c 2 -a 0 -i 0 -k RTR
r -t 1.038599645 -s 8 -d -1 -p AOMDV -e 52 -c 2 -a 0 -i 0 -k RTR
r -t 1.038599825 -s 6 -d -1 -p AOMDV -e 52 -c 2 -a 0 -i 0 -k RTR
+ -t 1.038824632 -s 1 -d -1 -p AOMDV -e 110 -c 2 -a 0 -i 0 -k MAC 
- -t 1.038824632 -s 1 -d -1 -p AOMDV -e 110 -c 2 -a 0 -i 0 -k MAC
h -t 1.038824632 -s 1 -d -1 -p AOMDV -e 110 -c 2 -a 0 -i 0 -k MAC
r -t 1.039705154 -s 7 -d -1 -p AOMDV -e 52 -c 2 -a 0 -i 0 -k MAC
r -t 1.039705186 -s 8 -d -1 -p AOMDV -e 52 -c 2 -a 0 -i 0 -k MAC
r -t 1.039705191 -s 5 -d -1 -p AOMDV -e 52 -c 2 -a 0 -i 0 -k MAC
r -t 1.039730154 -s 7 -d -1 -p AOMDV -e 52 -c 2 -a 0 -i 0 -k RTR
r -t 1.039730186 -s 8 -d -1 -p AOMDV -e 52 -c 2 -a 0 -i 0 -k RTR
r -t 1.039730191 -s 5 -d -1 -p AOMDV -e 52 -c 2 -a 0 -i 0 -k RTR
+ -t 1.039795191 -s 5 -d -1 -p RTS -e 44 -c 2 -a 0 -i 0 -k MAC 
- -t 1.039795191 -s 5 -d -1 -p RTS -e 44 -c 2 -a 0 -i 0 -k MAC
h -t 1.039795191 -s 5 -d -1 -p RTS -e 44 -c 2 -a 0 -i 0 -k MAC
r -t 1.040147807 -s 6 -d -1 -p RTS -e 44 -c 2 -a 0 -i 0 -k MAC
+ -t 1.040157807 -s 6 -d -1 -p CTS -e 38 -c 2 -a 0 -i 0 -k MAC 
- -t 1.040157807 -s 6 -d -1 -p CTS -e 38 -c 2 -a 0 -i 0 -k MAC
h -t 1.040157807 -s 6 -d -1 -p CTS -e 38 -c 2 -a 0 -i 0 -k MAC
r -t 1.040462423 -s 5 -d -1 -p CTS -e 38 -c 2 -a 0 -i 0 -k MAC
+ -t 1.040472423 -s 5 -d 6 -p tcp -e 1618 -c 2 -a 0 -i 4 -k MAC 
- -t 1.040472423 -s 5 -d 6 -p tcp -e 1618 -c 2 -a 0 -i 4 -k MAC
h -t 1.040472423 -s 5 -d 6 -p tcp -e 1618 -c 2 -a 0 -i 4 -k MAC
+ -t 1.048359530 -s 3 -d -1 -p AOMDV -e 52 -c 2 -a 0 -i 0 -k RTR 
- -t 1.048359530 -s 3 -d -1 -p AOMDV -e 52 -c 2 -a 0 -i 0 -k RTR
h -t 1.048359530 -s 3 -d -1 -p AOMDV -e 52 -c 2 -a 0 -i 0 -k RTR
r -t 1.053417040 -s 6 -d 6 -p tcp -e 1560 -c 2 -a 0 -i 4 -k MAC
+ -t 1.053427040 -s 6 -d -1 -p ACK -e 38 -c 2 -a 0 -i 0 -k MAC 
- -t 1.053427040 -s 6 -d -1 -p ACK -e 38 -c 2 -a 0 -i 0 -k MAC
h -t 1.053427040 -s 6 -d -1 -p ACK -e 38 -c 2 -a 0 -i 0 -k MAC
r -t 1.053442040 -s 6 -d 6 -p tcp -e 1560 -c 2 -a 0 -i 4 -k AGT
+ -t 1.053442040 -s 6 -d -1 -p ack -e 40 -c 2 -a 0 -i 6 -k AGT 
- -t 1.053442040 -s 6 -d -1 -p ack -e 40 -c 2 -a 0 -i 6 -k AGT
h -t 1.053442040 -s 6 -d -1 -p ack -e 40 -c 2 -a 0 -i 6 -k AGT
+ -t 1.053442040 -s 6 -d 5 -p ack -e 60 -c 2 -a 0 -i 6 -k RTR 
- -t 1.053442040 -s 6 -d 5 -p ack -e 60 -c 2 -a 0 -i 6 -k RTR
h -t 1.053442040 -s 6 -d 5 -p ack -e 60 -c 2 -a 0 -i 6 -k RTR
r -t 1.053731654 -s 5 -d -1 -p ACK -e 38 -c 2 -a 0 -i 0 -k MAC
+ -t 1.053821654 -s 5 -d -1 -p RTS -e 44 -c 2 -a 0 -i 0 -k MAC 
- -t 1.053821654 -s 5 -d -1 -p RTS -e 44 -c 2 -a 0 -i 0 -k MAC
h -t 1.053821654 -s 5 -d -1 -p RTS -e 44 -c 2 -a 0 -i 0 -k MAC
r -t 1.054174093 -s 8 -d -1 -p RTS -e 44 -c 2 -a 0 -i 0 -k MAC
+ -t 1.054184093 -s 8 -d -1 -p CTS -e 38 -c 2 -a 0 -i 0 -k MAC 
- -t 1.054184093 -s 8 -d -1 -p CTS -e 38 -c 2 -a 0 -i 0 -k MAC
h -t 1.054184093 -s 8 -d -1 -p CTS -e 38 -c 2 -a 0 -i 0 -k MAC
r -t 1.054488531 -s 5 -d -1 -p CTS -e 38 -c 2 -a 0 -i 0 -k MAC
+ -t 1.054498531 -s 5 -d -1 -p ARP -e 86 -c 2 -a 0 -i 0 -k MAC 
- -t 1.054498531 -s 5 -d -1 -p ARP -e 86 -c 2 -a 0 -i 0 -k MAC
h -t 1.054498531 -s 5 -d -1 -p ARP -e 86 -c 2 -a 0 -i 0 -k MAC
r -t 1.055186969 -s 8 -d -1 -p ARP -e 28 -c 2 -a 0 -i 0 -k MAC
+ -t 1.055196969 -s 8 -d -1 -p ACK -e 38 -c 2 -a 0 -i 0 -k MAC 
- -t 1.055196969 -s 8 -d -1 -p ACK -e 38 -c 2 -a 0 -i 0 -k MAC
h -t 1.055196969 -s 8 -d -1 -p ACK -e 38 -c 2 -a 0 -i 0 -k MAC
r -t 1.055501408 -s 5 -d -1 -p ACK -e 38 -c 2 -a 0 -i 0 -k MAC
+ -t 1.055811524 -s 1 -d -1 -p AOMDV -e 110 -c 2 -a 0 -i 0 -k MAC 
- -t 1.055811524 -s 1 -d -1 -p AOMDV -e 110 -c 2 -a 0 -i 0 -k MAC
h -t 1.055811524 -s 1 -d -1 -p AOMDV -e 110 -c 2 -a 0 -i 0 -k MAC
r -t 1.056692047 -s 7 -d -1 -p AOMDV -e 52 -c 2 -a 0 -i 0 -k MAC
r -t 1.056692079 -s 8 -d -1 -p AOMDV -e 52 -c 2 -a 0 -i 0 -k MAC
r -t 1.056692085 -s 5 -d -1 -p AOMDV -e 52 -c 2 -a 0 -i 0 -k MAC
r -t 1.056717047 -s 7 -d -1 -p AOMDV -e 52 -c 2 -a 0 -i 0 -k RTR
r -t 1.056717079 -s 8 -d -1 -p AOMDV -e 52 -c 2 -a 0 -i 0 -k RTR
r -t 1.056717085 -s 5 -d -1 -p AOMDV -e 52 -c 2 -a 0 -i 0 -k RTR
+ -t 1.056942079 -s 8 -d -1 -p RTS -e 44 -c 2 -a 0 -i 0 -k MAC 
- -t 1.056942079 -s 8 -d -1 -p RTS -e 44 -c 2 -a 0 -i 0 -k MAC
h -t 1.056942079 -s 8 -d -1 -p RTS -e 44 -c 2 -a 0 -i 0 -k MAC
r -t 1.057294517 -s 5 -d -1 -p RTS -e 44 -c 2 -a 0 -i 0 -k MAC
+ -t 1.057304517 -s 5 -d -1 -p CTS -e 38 -c 2 -a 0 -i 0 -k MAC 
- -t 1.057304517 -s 5 -d -1 -p CTS -e 38 -c 2 -a 0 -i 0 -k MAC
h -t 1.057304517 -s 5 -d -1 -p CTS -e 38 -c 2 -a 0 -i 0 -k MAC
r -t 1.057608956 -s 8 -d -1 -p CTS -e 38 -c 2 -a 0 -i 0 -k MAC
+ -t 1.057618956 -s 8 -d 5 -p AOMDV -e 110 -c 2 -a 0 -i 0 -k MAC 
- -t 1.057618956 -s 8 -d 5 -p AOMDV -e 110 -c 2 -a 0 -i 0 -k MAC
h -t 1.057618956 -s 8 -d 5 -p AOMDV -e 110 -c 2 -a 0 -i 0 -k MAC
r -t 1.058499394 -s 5 -d 5 -p AOMDV -e 52 -c 2 -a 0 -i 0 -k MAC
+ -t 1.058509394 -s 5 -d -1 -p ACK -e 38 -c 2 -a 0 -i 0 -k MAC 
- -t 1.058509394 -s 5 -d -1 -p ACK -e 38 -c 2 -a 0 -i 0 -k MAC
h -t 1.058509394 -s 5 -d -1 -p ACK -e 38 -c 2 -a 0 -i 0 -k MAC
r -t 1.058813832 -s 8 -d -1 -p ACK -e 38 -c 2 -a 0 -i 0 -k MAC
+ -t 1.058984008 -s 6 -d -1 -p RTS -e 44 -c 2 -a 0 -i 0 -k MAC 
- -t 1.058984008 -s 6 -d -1 -p RTS -e 44 -c 2 -a 0 -i 0 -k MAC
h -t 1.058984008 -s 6 -d -1 -p RTS -e 44 -c 2 -a 0 -i 0 -k MAC
r -t 1.059336623 -s 5 -d -1 -p RTS -e 44 -c 2 -a 0 -i 0 -k MAC
+ -t 1.059346623 -s 5 -d -1 -p CTS -e 38 -c 2 -a 0 -i 0 -k MAC 
- -t 1.059346623 -s 5 -d -1 -p CTS -e 38 -c 2 -a 0 -i 0 -k MAC
h -t 1.059346623 -s 5 -d -1 -p CTS -e 38 -c 2 -a 0 -i 0 -k MAC
r -t 1.059651237 -s 6 -d -1 -p CTS -e 38 -c 2 -a 0 -i 0 -k MAC
+ -t 1.059661237 -s 6 -d 5 -p ack -e 118 -c 2 -a 0 -i 5 -k MAC 
- -t 1.059661237 -s 6 -d 5 -p ack -e 118 -c 2 -a 0 -i 5 -k MAC
h -t 1.059661237 -s 6 -d 5 -p ack -e 118 -c 2 -a 0 -i 5 -k MAC
r -t 1.060605851 -s 5 -d 5 -p ack -e 60 -c 2 -a 0 -i 5 -k MAC
+ -t 1.060615851 -s 5 -d -1 -p ACK -e 38 -c 2 -a 0 -i 0 -k MAC 
- -t 1.060615851 -s 5 -d -1 -p ACK -e 38 -c 2 -a 0 -i 0 -k MAC
h -t 1.060615851 -s 5 -d -1 -p ACK -e 38 -c 2 -a 0 -i 0 -k MAC
r -t 1.060630851 -s 5 -d 5 -p ack -e 60 -c 2 -a 0 -i 5 -k AGT
+ -t 1.060630851 -s 5 -d -1 -p tcp -e 1540 -c 2 -a 0 -i 7 -k AGT 
- -t 1.060630851 -s 5 -d -1 -p tcp -e 1540 -c 2 -a 0 -i 7 -k AGT
h -t 1.060630851 -s 5 -d -1 -p tcp -e 1540 -c 2 -a 0 -i 7 -k AGT
+ -t 1.060630851 -s 5 -d -1 -p tcp -e 1540 -c 2 -a 0 -i 8 -k AGT 
- -t 1.060630851 -s 5 -d -1 -p tcp -e 1540 -c 2 -a 0 -i 8 -k AGT
h -t 1.060630851 -s 5 -d -1 -p tcp -e 1540 -c 2 -a 0 -i 8 -k AGT
+ -t 1.060630851 -s 5 -d 6 -p tcp -e 1560 -c 2 -a 0 -i 7 -k RTR 
- -t 1.060630851 -s 5 -d 6 -p tcp -e 1560 -c 2 -a 0 -i 7 -k RTR
h -t 1.060630851 -s 5 -d 6 -p tcp -e 1560 -c 2 -a 0 -i 7 -k RTR
+ -t 1.060630851 -s 5 -d 6 -p tcp -e 1560 -c 2 -a 0 -i 8 -k RTR 
- -t 1.060630851 -s 5 -d 6 -p tcp -e 1560 -c 2 -a 0 -i 8 -k RTR
h -t 1.060630851 -s 5 -d 6 -p tcp -e 1560 -c 2 -a 0 -i 8 -k RTR
r -t 1.060920465 -s 6 -d -1 -p ACK -e 38 -c 2 -a 0 -i 0 -k MAC
+ -t 1.061049851 -s 5 -d -1 -p RTS -e 44 -c 2 -a 0 -i 0 -k MAC 
- -t 1.061049851 -s 5 -d -1 -p RTS -e 44 -c 2 -a 0 -i 0 -k MAC
h -t 1.061049851 -s 5 -d -1 -p RTS -e 44 -c 2 -a 0 -i 0 -k MAC
r -t 1.061402465 -s 6 -d -1 -p RTS -e 44 -c 2 -a 0 -i 0 -k MAC
+ -t 1.061412465 -s 6 -d -1 -p CTS -e 38 -c 2 -a 0 -i 0 -k MAC 
- -t 1.061412465 -s 6 -d -1 -p CTS -e 38 -c 2 -a 0 -i 0 -k MAC
h -t 1.061412465 -s 6 -d -1 -p CTS -e 38 -c 2 -a 0 -i 0 -k MAC
r -t 1.061717079 -s 5 -d -1 -p CTS -e 38 -c 2 -a 0 -i 0 -k MAC
+ -t 1.061727079 -s 5 -d 6 -p tcp -e 1618 -c 2 -a 0 -i 7 -k MAC 
- -t 1.061727079 -s 5 -d 6 -p tcp -e 1618 -c 2 -a 0 -i 7 -k MAC
h -t 1.061727079 -s 5 -d 6 -p tcp -e 1618 -c 2 -a 0 -i 7 -k MAC
+ -t 1.069432572 -s 7 -d -1 -p AOMDV -e 44 -c 2 -a 0 -i 0 -k RTR 
- -t 1.069432572 -s 7 -d -1 -p AOMDV -e 44 -c 2 -a 0 -i 0 -k RTR
h -t 1.069432572 -s 7 -d -1 -p AOMDV -e 44 -c 2 -a 0 -i 0 -k RTR
r -t 1.074671693 -s 6 -d 6 -p tcp -e 1560 -c 2 -a 0 -i 7 -k MAC
+ -t 1.074681693 -s 6 -d -1 -p ACK -e 38 -c 2 -a 0 -i 0 -k MAC 
- -t 1.074681693 -s 6 -d -1 -p ACK -e 38 -c 2 -a 0 -i 0 -k MAC
h -t 1.074681693 -s 6 -d -1 -p ACK -e 38 -c 2 -a 0 -i 0 -k MAC
r -t 1.074696693 -s 6 -d 6 -p tcp -e 1560 -c 2 -a 0 -i 7 -k AGT