n -t * -s 0  -x 995 -y 556 -Z 0 -z 30  -v circle -c green
n -t * -s 1  -x 482 -y 637 -Z 0 -z 30  -v circle -c green
n -t * -s 2  -x 549 -y 950 -Z 0 -z 30  -v circle -c green
n -t * -s 3  -x 708 -y 473 -Z 0 -z 30  -v circle -c green
n -t * -s 4  -x 233 -y 949 -Z 0 -z 30  -v circle -c green
n -t * -s 5  -x 354 -y 555 -Z 0 -z 30  -v circle -c green
n -t * -s 6  -x 432 -y 362 -Z 0 -z 30  -v circle -c green
n -t * -s 7  -x 587 -y 512 -Z 0 -z 30  -v circle -c green
n -t * -s 8  -x 456 -y 471 -Z 0 -z 30  -v circle -c green
n -t * -s 9  -x 248 -y 174 -Z 0 -z 30  -v circle -c green
n -t * -s 10  -x 388 -y 272 -Z 0 -z 30  -v circle -c green
n -t * -s 11  -x 475 -y 985 -Z 0 -z 30  -v circle -c green
V -t * -v 1.0a5 -a 0
W -t * -x 1000 -y 1000
A -t * -n 1 -p 0 -o 0xffffffff -c 31 -a 1
A -t * -h 1 -m 2147483647 -s 0
n -t 0.000000 -s 1 -x 482.000000 -y 637.000000 -U 0.741025 -V -24.989015 -T 24.290673
n -t 0.000000 -s 4 -x 233.000000 -y 949.000000 -U 0.737932 -V -4.945246 -T 90.794273
n -t 0.000000 -s 5 -x 354.000000 -y 555.000000 -U -17.365367 -V -24.463116 -T 14.511643
n -t 0.000000 -s 8 -x 456.000000 -y 471.000000 -U -14.742378 -V -20.190648 -T 21.841795
n -t 0.000000 -s 11 -x 475.000000 -y 985.000000 -U 0.130845 -V -4.998288 -T 191.065434
+ -t 0.034809998 -s 0 -d -1 -p message -e 32 -c 2 -a 0 -i 0 -k RTR 
- -t 0.034809998 -s 0 -d -1 -p message -e 32 -c 2 -a 0 -i 0 -k RTR
h -t 0.034809998 -s 0 -d -1 -p message -e 32 -c 2 -a 0 -i 0 -k RTR
+ -t 0.035124998 -s 0 -d -1 -p message -e 90 -c 2 -a 0 -i 0 -k MAC 
- -t 0.035124998 -s 0 -d -1 -p message -e 90 -c 2 -a 0 -i 0 -k MAC
h -t 0.035124998 -s 0 -d -1 -p message -e 90 -c 2 -a 0 -i 0 -k MAC
+ -t 0.087337168 -s 11 -d -1 -p message -e 32 -c 2 -a 0 -i 1 -k RTR 
- -t 0.087337168 -s 11 -d -1 -p message -e 32 -c 2 -a 0 -i 1 -k RTR
h -t 0.087337168 -s 11 -d -1 -p message -e 32 -c 2 -a 0 -i 1 -k RTR
+ -t 0.087732168 -s 11 -d -1 -p message -e 90 -c 2 -a 0 -i 1 -k MAC 
- -t 0.087732168 -s 11 -d -1 -p message -e 90 -c 2 -a 0 -i 1 -k MAC
h -t 0.087732168 -s 11 -d -1 -p message -e 90 -c 2 -a 0 -i 1 -k MAC
r -t 0.088452440 -s 2 -d -1 -p message -e 32 -c 2 -a 0 -i 1 -k MAC
r -t 0.088452983 -s 4 -d -1 -p message -e 32 -c 2 -a 0 -i 1 -k MAC
r -t 0.088477440 -s 2 -d -1 -p message -e 32 -c 2 -a 0 -i 1 -k RTR
r -t 0.088477983 -s 4 -d -1 -p message -e 32 -c 2 -a 0 -i 1 -k RTR
+ -t 0.178826222 -s 1 -d -1 -p message -e 32 -c 2 -a 0 -i 2 -k RTR 
- -t 0.178826222 -s 1 -d -1 -p message -e 32 -c 2 -a 0 -i 2 -k RTR
h -t 0.178826222 -s 1 -d -1 -p message -e 32 -c 2 -a 0 -i 2 -k RTR
+ -t 0.179141222 -s 1 -d -1 -p message -e 90 -c 2 -a 0 -i 2 -k MAC 
- -t 0.179141222 -s 1 -d -1 -p message -e 90 -c 2 -a 0 -i 2 -k MAC
h -t 0.179141222 -s 1 -d -1 -p message -e 90 -c 2 -a 0 -i 2 -k MAC
r -t 0.179861738 -s 5 -d -1 -p message -e 32 -c 2 -a 0 -i 2 -k MAC
r -t 0.179861755 -s 7 -d -1 -p message -e 32 -c 2 -a 0 -i 2 -k MAC
r -t 0.179861781 -s 8 -d -1 -p message -e 32 -c 2 -a 0 -i 2 -k MAC
r -t 0.179886738 -s 5 -d -1 -p message -e 32 -c 2 -a 0 -i 2 -k RTR
r -t 0.179886755 -s 7 -d -1 -p message -e 32 -c 2 -a 0 -i 2 -k RTR
r -t 0.179886781 -s 8 -d -1 -p message -e 32 -c 2 -a 0 -i 2 -k RTR
+ -t 0.335213882 -s 10 -d -1 -p message -e 32 -c 2 -a 0 -i 3 -k RTR 
- -t 0.335213882 -s 10 -d -1 -p message -e 32 -c 2 -a 0 -i 3 -k RTR
h -t 0.335213882 -s 10 -d -1 -p message -e 32 -c 2 -a 0 -i 3 -k RTR
+ -t 0.335688882 -s 10 -d -1 -p message -e 90 -c 2 -a 0 -i 3 -k MAC 
- -t 0.335688882 -s 10 -d -1 -p message -e 90 -c 2 -a 0 -i 3 -k MAC
h -t 0.335688882 -s 10 -d -1 -p message -e 90 -c 2 -a 0 -i 3 -k MAC
r -t 0.336409215 -s 6 -d -1 -p message -e 32 -c 2 -a 0 -i 3 -k MAC
r -t 0.336409451 -s 9 -d -1 -p message -e 32 -c 2 -a 0 -i 3 -k MAC
r -t 0.336409556 -s 8 -d -1 -p message -e 32 -c 2 -a 0 -i 3 -k MAC
r -t 0.336434215 -s 6 -d -1 -p message -e 32 -c 2 -a 0 -i 3 -k RTR
r -t 0.336434451 -s 9 -d -1 -p message -e 32 -c 2 -a 0 -i 3 -k RTR
r -t 0.336434556 -s 8 -d -1 -p message -e 32 -c 2 -a 0 -i 3 -k RTR
+ -t 0.471615760 -s 6 -d -1 -p message -e 32 -c 2 -a 0 -i 4 -k RTR 
- -t 0.471615760 -s 6 -d -1 -p message -e 32 -c 2 -a 0 -i 4 -k RTR
h -t 0.471615760 -s 6 -d -1 -p message -e 32 -c 2 -a 0 -i 4 -k RTR
+ -t 0.471990760 -s 6 -d -1 -p message -e 90 -c 2 -a 0 -i 4 -k MAC 
- -t 0.471990760 -s 6 -d -1 -p message -e 90 -c 2 -a 0 -i 4 -k MAC
h -t 0.471990760 -s 6 -d -1 -p message -e 90 -c 2 -a 0 -i 4 -k MAC
r -t 0.472711094 -s 10 -d -1 -p message -e 32 -c 2 -a 0 -i 4 -k MAC
r -t 0.472711096 -s 8 -d -1 -p message -e 32 -c 2 -a 0 -i 4 -k MAC
r -t 0.472711430 -s 5 -d -1 -p message -e 32 -c 2 -a 0 -i 4 -k MAC
r -t 0.472711479 -s 7 -d -1 -p message -e 32 -c 2 -a 0 -i 4 -k MAC
r -t 0.472736094 -s 10 -d -1 -p message -e 32 -c 2 -a 0 -i 4 -k RTR
r -t 0.472736096 -s 8 -d -1 -p message -e 32 -c 2 -a 0 -i 4 -k RTR
r -t 0.472736430 -s 5 -d -1 -p message -e 32 -c 2 -a 0 -i 4 -k RTR
r -t 0.472736479 -s 7 -d -1 -p message -e 32 -c 2 -a 0 -i 4 -k RTR
n -t 0.500000 -s 0 -x 995.000000 -y 556.000000 -U -22.964628 -V -9.880580 -T 25.909411
n -t 0.500000 -s 3 -x 708.000000 -y 473.000000 -U -24.761767 -V -7.928109 -T 9.207744
n -t 0.500000 -s 6 -x 432.000000 -y 362.000000 -U -13.816577 -V 9.904655 -T 24.029106
n -t 0.500000 -s 7 -x 587.000000 -y 512.000000 -U 11.759304 -V -22.061704 -T 9.609412
n -t 0.500000 -s 10 -x 388.000000 -y 272.000000 -U 23.745433 -V 10.590298 -T 12.086535
v -t 0.5 -e sim_annotation 0.5 1 Starting FTP0 node5 to node6
v -t 0.5 -e sim_annotation 0.5 2 Starting FTP1 node7 to node9
+ -t 0.627015528 -s 4 -d -1 -p message -e 32 -c 2 -a 0 -i 6 -k RTR 
- -t 0.627015528 -s 4 -d -1 -p message -e 32 -c 2 -a 0 -i 6 -k RTR
h -t 0.627015528 -s 4 -d -1 -p message -e 32 -c 2 -a 0 -i 6 -k RTR
+ -t 0.627190528 -s 4 -d -1 -p message -e 90 -c 2 -a 0 -i 6 -k MAC 
- -t 0.627190528 -s 4 -d -1 -p message -e 90 -c 2 -a 0 -i 6 -k MAC
h -t 0.627190528 -s 4 -d -1 -p message -e 90 -c 2 -a 0 -i 6 -k MAC
+ -t 0.627207570 -s 8 -d -1 -p message -e 32 -c 2 -a 0 -i 5 -k RTR 
- -t 0.627207570 -s 8 -d -1 -p message -e 32 -c 2 -a 0 -i 5 -k RTR
h -t 0.627207570 -s 8 -d -1 -p message -e 32 -c 2 -a 0 -i 5 -k RTR
r -t 0.627911342 -s 11 -d -1 -p message -e 32 -c 2 -a 0 -i 6 -k MAC
r -t 0.627936342 -s 11 -d -1 -p message -e 32 -c 2 -a 0 -i 6 -k RTR
+ -t 0.628846302 -s 8 -d -1 -p message -e 90 -c 2 -a 0 -i 5 -k MAC 
- -t 0.628846302 -s 8 -d -1 -p message -e 90 -c 2 -a 0 -i 5 -k MAC
h -t 0.628846302 -s 8 -d -1 -p message -e 90 -c 2 -a 0 -i 5 -k MAC
r -t 0.629566623 -s 6 -d -1 -p message -e 32 -c 2 -a 0 -i 5 -k MAC
r -t 0.629566741 -s 5 -d -1 -p message -e 32 -c 2 -a 0 -i 5 -k MAC
r -t 0.629566804 -s 7 -d -1 -p message -e 32 -c 2 -a 0 -i 5 -k MAC
r -t 0.629566858 -s 1 -d -1 -p message -e 32 -c 2 -a 0 -i 5 -k MAC
r -t 0.629566946 -s 10 -d -1 -p message -e 32 -c 2 -a 0 -i 5 -k MAC
r -t 0.629591623 -s 6 -d -1 -p message -e 32 -c 2 -a 0 -i 5 -k RTR
r -t 0.629591741 -s 5 -d -1 -p message -e 32 -c 2 -a 0 -i 5 -k RTR
r -t 0.629591804 -s 7 -d -1 -p message -e 32 -c 2 -a 0 -i 5 -k RTR
r -t 0.629591858 -s 1 -d -1 -p message -e 32 -c 2 -a 0 -i 5 -k RTR
r -t 0.629591946 -s 10 -d -1 -p message -e 32 -c 2 -a 0 -i 5 -k RTR
n -t 0.700000 -s 2 -x 549.000000 -y 950.000000 -U -1.151030 -V -19.966851 -T 42.570559
n -t 0.700000 -s 9 -x 248.000000 -y 174.000000 -U 13.833688 -V 14.443998 -T 29.493220
+ -t 0.883467077 -s 2 -d -1 -p message -e 32 -c 2 -a 0 -i 7 -k RTR 
- -t 0.883467077 -s 2 -d -1 -p message -e 32 -c 2 -a 0 -i 7 -k RTR
h -t 0.883467077 -s 2 -d -1 -p message -e 32 -c 2 -a 0 -i 7 -k RTR
+ -t 0.883662077 -s 2 -d -1 -p message -e 90 -c 2 -a 0 -i 7 -k MAC 
- -t 0.883662077 -s 2 -d -1 -p message -e 90 -c 2 -a 0 -i 7 -k MAC
h -t 0.883662077 -s 2 -d -1 -p message -e 90 -c 2 -a 0 -i 7 -k MAC
r -t 0.884382348 -s 11 -d -1 -p message -e 32 -c 2 -a 0 -i 7 -k MAC
r -t 0.884407348 -s 11 -d -1 -p message -e 32 -c 2 -a 0 -i 7 -k RTR
+ -t 1.000000000 -s 5 -d -1 -p tcp -e 40 -c 2 -a 0 -i 8 -k AGT 
- -t 1.000000000 -s 5 -d -1 -p tcp -e 40 -c 2 -a 0 -i 8 -k AGT
h -t 1.000000000 -s 5 -d -1 -p tcp -e 40 -c 2 -a 0 -i 8 -k AGT
+ -t 1.000000000 -s 5 -d 6 -p tcp -e 60 -c 2 -a 0 -i 8 -k RTR 
- -t 1.000000000 -s 5 -d 6 -p tcp -e 60 -c 2 -a 0 -i 8 -k RTR
h -t 1.000000000 -s 5 -d 6 -p tcp -e 60 -c 2 -a 0 -i 8 -k RTR
+ -t 1.000000000 -s 7 -d -1 -p tcp -e 40 -c 2 -a 0 -i 9 -k AGT 
- -t 1.000000000 -s 7 -d -1 -p tcp -e 40 -c 2 -a 0 -i 9 -k AGT
h -t 1.000000000 -s 7 -d -1 -p tcp -e 40 -c 2 -a 0 -i 9 -k AGT
+ -t 1.000555000 -s 5 -d -1 -p ARP -e 86 -c 2 -a 0 -i 0 -k MAC 
- -t 1.000555000 -s 5 -d -1 -p ARP -e 86 -c 2 -a 0 -i 0 -k MAC
h -t 1.000555000 -s 5 -d -1 -p ARP -e 86 -c 2 -a 0 -i 0 -k MAC
r -t 1.001243438 -s 8 -d -1 -p ARP -e 28 -c 2 -a 0 -i 0 -k MAC
r -t 1.001243558 -s 1 -d -1 -p ARP -e 28 -c 2 -a 0 -i 0 -k MAC
r -t 1.001243620 -s 6 -d -1 -p ARP -e 28 -c 2 -a 0 -i 0 -k MAC
+ -t 1.001478620 -s 6 -d -1 -p RTS -e 44 -c 2 -a 0 -i 0 -k MAC 
- -t 1.001478620 -s 6 -d -1 -p RTS -e 44 -c 2 -a 0 -i 0 -k MAC
h -t 1.001478620 -s 6 -d -1 -p RTS -e 44 -c 2 -a 0 -i 0 -k MAC
r -t 1.001831240 -s 5 -d -1 -p RTS -e 44 -c 2 -a 0 -i 0 -k MAC
+ -t 1.001841240 -s 5 -d -1 -p CTS -e 38 -c 2 -a 0 -i 0 -k MAC 
- -t 1.001841240 -s 5 -d -1 -p CTS -e 38 -c 2 -a 0 -i 0 -k MAC
h -t 1.001841240 -s 5 -d -1 -p CTS -e 38 -c 2 -a 0 -i 0 -k MAC
r -t 1.002145859 -s 6 -d -1 -p CTS -e 38 -c 2 -a 0 -i 0 -k MAC
+ -t 1.002155859 -s 6 -d -1 -p ARP -e 86 -c 2 -a 0 -i 0 -k MAC 
- -t 1.002155859 -s 6 -d -1 -p ARP -e 86 -c 2 -a 0 -i 0 -k MAC
h -t 1.002155859 -s 6 -d -1 -p ARP -e 86 -c 2 -a 0 -i 0 -k MAC
r -t 1.002844479 -s 5 -d -1 -p ARP -e 28 -c 2 -a 0 -i 0 -k MAC
+ -t 1.002854479 -s 5 -d -1 -p ACK -e 38 -c 2 -a 0 -i 0 -k MAC 
- -t 1.002854479 -s 5 -d -1 -p ACK -e 38 -c 2 -a 0 -i 0 -k MAC
h -t 1.002854479 -s 5 -d -1 -p ACK -e 38 -c 2 -a 0 -i 0 -k MAC
r -t 1.003159099 -s 6 -d -1 -p ACK -e 38 -c 2 -a 0 -i 0 -k MAC
+ -t 1.003308479 -s 5 -d -1 -p RTS -e 44 -c 2 -a 0 -i 0 -k MAC 
- -t 1.003308479 -s 5 -d -1 -p RTS -e 44 -c 2 -a 0 -i 0 -k MAC
h -t 1.003308479 -s 5 -d -1 -p RTS -e 44 -c 2 -a 0 -i 0 -k MAC
r -t 1.003661099 -s 6 -d -1 -p RTS -e 44 -c 2 -a 0 -i 0 -k MAC
+ -t 1.003671099 -s 6 -d -1 -p CTS -e 38 -c 2 -a 0 -i 0 -k MAC 
- -t 1.003671099 -s 6 -d -1 -p CTS -e 38 -c 2 -a 0 -i 0 -k MAC
h -t 1.003671099 -s 6 -d -1 -p CTS -e 38 -c 2 -a 0 -i 0 -k MAC
r -t 1.003975718 -s 5 -d -1 -p CTS -e 38 -c 2 -a 0 -i 0 -k MAC
+ -t 1.003985718 -s 5 -d 6 -p tcp -e 118 -c 2 -a 0 -i 8 -k MAC 
- -t 1.003985718 -s 5 -d 6 -p tcp -e 118 -c 2 -a 0 -i 8 -k MAC
h -t 1.003985718 -s 5 -d 6 -p tcp -e 118 -c 2 -a 0 -i 8 -k MAC
r -t 1.004930338 -s 6 -d 6 -p tcp -e 60 -c 2 -a 0 -i 8 -k MAC
+ -t 1.004940338 -s 6 -d -1 -p ACK -e 38 -c 2 -a 0 -i 0 -k MAC 
- -t 1.004940338 -s 6 -d -1 -p ACK -e 38 -c 2 -a 0 -i 0 -k MAC
h -t 1.004940338 -s 6 -d -1 -p ACK -e 38 -c 2 -a 0 -i 0 -k MAC
r -t 1.004955338 -s 6 -d 6 -p tcp -e 60 -c 2 -a 0 -i 8 -k AGT
+ -t 1.004955338 -s 6 -d -1 -p ack -e 40 -c 2 -a 0 -i 10 -k AGT 
- -t 1.004955338 -s 6 -d -1 -p ack -e 40 -c 2 -a 0 -i 10 -k AGT
h -t 1.004955338 -s 6 -d -1 -p ack -e 40 -c 2 -a 0 -i 10 -k AGT
r -t 1.005244957 -s 5 -d -1 -p ACK -e 38 -c 2 -a 0 -i 0 -k MAC
+ -t 1.283178506 -s 7 -d -1 -p message -e 32 -c 2 -a 0 -i 11 -k RTR 
- -t 1.283178506 -s 7 -d -1 -p message -e 32 -c 2 -a 0 -i 11 -k RTR
h -t 1.283178506 -s 7 -d -1 -p message -e 32 -c 2 -a 0 -i 11 -k RTR
+ -t 1.283573506 -s 7 -d -1 -p message -e 90 -c 2 -a 0 -i 11 -k MAC 
- -t 1.283573506 -s 7 -d -1 -p message -e 90 -c 2 -a 0 -i 11 -k MAC
h -t 1.283573506 -s 7 -d -1 -p message -e 90 -c 2 -a 0 -i 11 -k MAC
r -t 1.284293828 -s 3 -d -1 -p message -e 32 -c 2 -a 0 -i 11 -k MAC
r -t 1.284294033 -s 1 -d -1 -p message -e 32 -c 2 -a 0 -i 11 -k MAC
r -t 1.284294062 -s 8 -d -1 -p message -e 32 -c 2 -a 0 -i 11 -k MAC
r -t 1.284294223 -s 6 -d -1 -p message -e 32 -c 2 -a 0 -i 11 -k MAC
r -t 1.284318828 -s 3 -d -1 -p message -e 32 -c 2 -a 0 -i 11 -k RTR
r -t 1.284319033 -s 1 -d -1 -p message -e 32 -c 2 -a 0 -i 11 -k RTR
r -t 1.284319062 -s 8 -d -1 -p message -e 32 -c 2 -a 0 -i 11 -k RTR
r -t 1.284319223 -s 6 -d -1 -p message -e 32 -c 2 -a 0 -i 11 -k RTR
+ -t 1.602567780 -s 3 -d -1 -p message -e 32 -c 2 -a 0 -i 12 -k RTR 
- -t 1.602567780 -s 3 -d -1 -p message -e 32 -c 2 -a 0 -i 12 -k RTR
h -t 1.602567780 -s 3 -d -1 -p message -e 32 -c 2 -a 0 -i 12 -k RTR
+ -t 1.602942780 -s 3 -d -1 -p message -e 90 -c 2 -a 0 -i 12 -k MAC 
- -t 1.602942780 -s 3 -d -1 -p message -e 90 -c 2 -a 0 -i 12 -k MAC
h -t 1.602942780 -s 3 -d -1 -p message -e 90 -c 2 -a 0 -i 12 -k MAC
r -t 1.603663060 -s 7 -d -1 -p message -e 32 -c 2 -a 0 -i 12 -k MAC
r -t 1.603663573 -s 1 -d -1 -p message -e 32 -c 2 -a 0 -i 12 -k MAC
r -t 1.603663612 -s 8 -d -1 -p message -e 32 -c 2 -a 0 -i 12 -k MAC
r -t 1.603688060 -s 7 -d -1 -p message -e 32 -c 2 -a 0 -i 12 -k RTR
r -t 1.603688573 -s 1 -d -1 -p message -e 32 -c 2 -a 0 -i 12 -k RTR
r -t 1.603688612 -s 8 -d -1 -p message -e 32 -c 2 -a 0 -i 12 -k RTR
+ -t 1.640801974 -s 5 -d -1 -p message -e 32 -c 2 -a 0 -i 13 -k RTR 
- -t 1.640801974 -s 5 -d -1 -p message -e 32 -c 2 -a 0 -i 13 -k RTR
h -t 1.640801974 -s 5 -d -1 -p message -e 32 -c 2 -a 0 -i 13 -k RTR
+ -t 1.641156974 -s 5 -d -1 -p message -e 90 -c 2 -a 0 -i 13 -k MAC 
- -t 1.641156974 -s 5 -d -1 -p message -e 90 -c 2 -a 0 -i 13 -k MAC
h -t 1.641156974 -s 5 -d -1 -p message -e 90 -c 2 -a 0 -i 13 -k MAC
r -t 1.641877411 -s 8 -d -1 -p message -e 32 -c 2 -a 0 -i 13 -k MAC
r -t 1.641877534 -s 6 -d -1 -p message -e 32 -c 2 -a 0 -i 13 -k MAC
r -t 1.641877565 -s 1 -d -1 -p message -e 32 -c 2 -a 0 -i 13 -k MAC
r -t 1.641877799 -s 10 -d -1 -p message -e 32 -c 2 -a 0 -i 13 -k MAC
r -t 1.641902411 -s 8 -d -1 -p message -e 32 -c 2 -a 0 -i 13 -k RTR
r -t 1.641902534 -s 6 -d -1 -p message -e 32 -c 2 -a 0 -i 13 -k RTR
+ -t 1.641902534 -s 6 -d 5 -p ack -e 80 -c 2 -a 0 -i 10 -k RTR 
- -t 1.641902534 -s 6 -d 5 -p ack -e 80 -c 2 -a 0 -i 10 -k RTR
h -t 1.641902534 -s 6 -d 5 -p ack -e 80 -c 2 -a 0 -i 10 -k RTR
r -t 1.641902565 -s 1 -d -1 -p message -e 32 -c 2 -a 0 -i 13 -k RTR
r -t 1.641902799 -s 10 -d -1 -p message -e 32 -c 2 -a 0 -i 13 -k RTR
+ -t 1.642457534 -s 6 -d -1 -p RTS -e 44 -c 2 -a 0 -i 0 -k MAC 
- -t 1.642457534 -s 6 -d -1 -p RTS -e 44 -c 2 -a 0 -i 0 -k MAC
h -t 1.642457534 -s 6 -d -1 -p RTS -e 44 -c 2 -a 0 -i 0 -k MAC
r -t 1.642810095 -s 5 -d -1 -p RTS -e 44 -c 2 -a 0 -i 0 -k MAC
+ -t 1.642820095 -s 5 -d -1 -p CTS -e 38 -c 2 -a 0 -i 0 -k MAC 
- -t 1.642820095 -s 5 -d -1 -p CTS -e 38 -c 2 -a 0 -i 0 -k MAC
h -t 1.642820095 -s 5 -d -1 -p CTS -e 38 -c 2 -a 0 -i 0 -k MAC
r -t 1.643124655 -s 6 -d -1 -p CTS -e 38 -c 2 -a 0 -i 0 -k MAC
+ -t 1.643134655 -s 6 -d 5 -p ack -e 138 -c 2 -a 0 -i 10 -k MAC 
- -t 1.643134655 -s 6 -d 5 -p ack -e 138 -c 2 -a 0 -i 10 -k MAC
h -t 1.643134655 -s 6 -d 5 -p ack -e 138 -c 2 -a 0 -i 10 -k MAC
r -t 1.644239215 -s 5 -d 5 -p ack -e 80 -c 2 -a 0 -i 10 -k MAC
+ -t 1.644249215 -s 5 -d -1 -p ACK -e 38 -c 2 -a 0 -i 0 -k MAC 
- -t 1.644249215 -s 5 -d -1 -p ACK -e 38 -c 2 -a 0 -i 0 -k MAC
h -t 1.644249215 -s 5 -d -1 -p ACK -e 38 -c 2 -a 0 -i 0 -k MAC
r -t 1.644264215 -s 5 -d 5 -p ack -e 80 -c 2 -a 0 -i 10 -k AGT
+ -t 1.644264215 -s 5 -d -1 -p tcp -e 1540 -c 2 -a 0 -i 14 -k AGT 
- -t 1.644264215 -s 5 -d -1 -p tcp -e 1540 -c 2 -a 0 -i 14 -k AGT
h -t 1.644264215 -s 5 -d -1 -p tcp -e 1540 -c 2 -a 0 -i 14 -k AGT
+ -t 1.644264215 -s 5 -d 6 -p tcp -e 1560 -c 2 -a 0 -i 14 -k RTR 
- -t 1.644264215 -s 5 -d 6 -p tcp -e 1560 -c 2 -a 0 -i 14 -k RTR
h -t 1.644264215 -s 5 -d 6 -p tcp -e 1560 -c 2 -a 0 -i 14 -k RTR
+ -t 1.644264215 -s 5 -d -1 -p tcp -e 1540 -c 2 -a 0 -i 15 -k AGT 
- -t 1.644264215 -s 5 -d -1 -p tcp -e 1540 -c 2 -a 0 -i 15 -k AGT
h -t 1.644264215 -s 5 -d -1 -p tcp -e 1540 -c 2 -a 0 -i 15 -k AGT
+ -t 1.644264215 -s 5 -d 6 -p tcp -e 1560 -c 2 -a 0 -i 15 -k RTR 
- -t 1.644264215 -s 5 -d 6 -p tcp -e 1560 -c 2 -a 0 -i 15 -k RTR
h -t 1.644264215 -s 5 -d 6 -p tcp -e 1560 -c 2 -a 0 -i 15 -k RTR
r -t 1.644553775 -s 6 -d -1 -p ACK -e 38 -c 2 -a 0 -i 0 -k MAC
+ -t 1.644843215 -s 5 -d -1 -p RTS -e 44 -c 2 -a 0 -i 0 -k MAC 
- -t 1.644843215 -s 5 -d -1 -p RTS -e 44 -c 2 -a 0 -i 0 -k MAC
h -t 1.644843215 -s 5 -d -1 -p RTS -e 44 -c 2 -a 0 -i 0 -k MAC
r -t 1.645195775 -s 6 -d -1 -p RTS -e 44 -c 2 -a 0 -i 0 -k MAC
+ -t 1.645205775 -s 6 -d -1 -p CTS -e 38 -c 2 -a 0 -i 0 -k MAC 
- -t 1.645205775 -s 6 -d -1 -p CTS -e 38 -c 2 -a 0 -i 0 -k MAC
h -t 1.645205775 -s 6 -d -1 -p CTS -e 38 -c 2 -a 0 -i 0 -k MAC
r -t 1.645510335 -s 5 -d -1 -p CTS -e 38 -c 2 -a 0 -i 0 -k MAC
+ -t 1.645520335 -s 5 -d 6 -p tcp -e 1618 -c 2 -a 0 -i 14 -k MAC 
- -t 1.645520335 -s 5 -d 6 -p tcp -e 1618 -c 2 -a 0 -i 14 -k MAC
h -t 1.645520335 -s 5 -d 6 -p tcp -e 1618 -c 2 -a 0 -i 14 -k MAC
r -t 1.658464895 -s 6 -d 6 -p tcp -e 1560 -c 2 -a 0 -i 14 -k MAC
+ -t 1.658474895 -s 6 -d -1 -p ACK -e 38 -c 2 -a 0 -i 0 -k MAC 
- -t 1.658474895 -s 6 -d -1 -p ACK -e 38 -c 2 -a 0 -i 0 -k MAC
h -t 1.658474895 -s 6 -d -1 -p ACK -e 38 -c 2 -a 0 -i 0 -k MAC
r -t 1.658489895 -s 6 -d 6 -p tcp -e 1560 -c 2 -a 0 -i 14 -k AGT
+ -t 1.658489895 -s 6 -d -1 -p ack -e 40 -c 2 -a 0 -i 16 -k AGT 
- -t 1.658489895 -s 6 -d -1 -p ack -e 40 -c 2 -a 0 -i 16 -k AGT
h -t 1.658489895 -s 6 -d -1 -p ack -e 40 -c 2 -a 0 -i 16 -k AGT
+ -t 1.658489895 -s 6 -d 5 -p ack -e 60 -c 2 -a 0 -i 16 -k RTR 
- -t 1.658489895 -s 6 -d 5 -p ack -e 60 -c 2 -a 0 -i 16 -k RTR
h -t 1.658489895 -s 6 -d 5 -p ack -e 60 -c 2 -a 0 -i 16 -k RTR
r -t 1.658779454 -s 5 -d -1 -p ACK -e 38 -c 2 -a 0 -i 0 -k MAC
+ -t 1.658869454 -s 5 -d -1 -p RTS -e 44 -c 2 -a 0 -i 0 -k MAC 
- -t 1.658869454 -s 5 -d -1 -p RTS -e 44 -c 2 -a 0 -i 0 -k MAC
h -t 1.658869454 -s 5 -d -1 -p RTS -e 44 -c 2 -a 0 -i 0 -k MAC
r -t 1.659222013 -s 6 -d -1 -p RTS -e 44 -c 2 -a 0 -i 0 -k MAC
+ -t 1.659232013 -s 6 -d -1 -p CTS -e 38 -c 2 -a 0 -i 0 -k MAC 
- -t 1.659232013 -s 6 -d -1 -p CTS -e 38 -c 2 -a 0 -i 0 -k MAC
h -t 1.659232013 -s 6 -d -1 -p CTS -e 38 -c 2 -a 0 -i 0 -k MAC
r -t 1.659536572 -s 5 -d -1 -p CTS -e 38 -c 2 -a 0 -i 0 -k MAC
+ -t 1.659546572 -s 5 -d 6 -p tcp -e 1618 -c 2 -a 0 -i 15 -k MAC 
- -t 1.659546572 -s 5 -d 6 -p tcp -e 1618 -c 2 -a 0 -i 15 -k MAC
h -t 1.659546572 -s 5 -d 6 -p tcp -e 1618 -c 2 -a 0 -i 15 -k MAC
r -t 1.672491131 -s 6 -d 6 -p tcp -e 1560 -c 2 -a 0 -i 15 -k MAC
+ -t 1.672501131 -s 6 -d -1 -p ACK -e 38 -c 2 -a 0 -i 0 -k MAC 
- -t 1.672501131 -s 6 -d -1 -p ACK -e 38 -c 2 -a 0 -i 0 -k MAC
h -t 1.672501131 -s 6 -d -1 -p ACK -e 38 -c 2 -a 0 -i 0 -k MAC
r -t 1.672516131 -s 6 -d 6 -p tcp -e 1560 -c 2 -a 0 -i 15 -k AGT
+ -t 1.672516131 -s 6 -d -1 -p ack -e 40 -c 2 -a 0 -i 17 -k AGT 
- -t 1.672516131 -s 6 -d -1 -p ack -e 40 -c 2 -a 0 -i 17 -k AGT
h -t 1.672516131 -s 6 -d -1 -p ack -e 40 -c 2 -a 0 -i 17 -k AGT
+ -t 1.672516131 -s 6 -d 5 -p ack -e 60 -c 2 -a 0 -i 17 -k RTR 
- -t 1.672516131 -s 6 -d 5 -p ack -e 60 -c 2 -a 0 -i 17 -k RTR
h -t 1.672516131 -s 6 -d 5 -p ack -e 60 -c 2 -a 0 -i 17 -k RTR
r -t 1.672805688 -s 5 -d -1 -p ACK -e 38 -c 2 -a 0 -i 0 -k MAC
+ -t 1.673115131 -s 6 -d -1 -p RTS -e 44 -c 2 -a 0 -i 0 -k MAC 
- -t 1.673115131 -s 6 -d -1 -p RTS -e 44 -c 2 -a 0 -i 0 -k MAC
h -t 1.673115131 -s 6 -d -1 -p RTS -e 44 -c 2 -a 0 -i 0 -k MAC
+ -t 1.673148408 -s 9 -d -1 -p message -e 32 -c 2 -a 0 -i 18 -k RTR 
- -t 1.673148408 -s 9 -d -1 -p message -e 32 -c 2 -a 0 -i 18 -k RTR
h -t 1.673148408 -s 9 -d -1 -p message -e 32 -c 2 -a 0 -i 18 -k RTR
r -t 1.673467688 -s 5 -d -1 -p RTS -e 44 -c 2 -a 0 -i 0 -k MAC
+ -t 1.673477688 -s 5 -d -1 -p CTS -e 38 -c 2 -a 0 -i 0 -k MAC 
- -t 1.673477688 -s 5 -d -1 -p CTS -e 38 -c 2 -a 0 -i 0 -k MAC
h -t 1.673477688 -s 5 -d -1 -p CTS -e 38 -c 2 -a 0 -i 0 -k MAC
r -t 1.673782246 -s 6 -d -1 -p CTS -e 38 -c 2 -a 0 -i 0 -k MAC
+ -t 1.673792246 -s 6 -d 5 -p ack -e 118 -c 2 -a 0 -i 16 -k MAC 
- -t 1.673792246 -s 6 -d 5 -p ack -e 118 -c 2 -a 0 -i 16 -k MAC
h -t 1.673792246 -s 6 -d 5 -p ack -e 118 -c 2 -a 0 -i 16 -k MAC
r -t 1.674736803 -s 5 -d 5 -p ack -e 60 -c 2 -a 0 -i 16 -k MAC
+ -t 1.674746803 -s 5 -d -1 -p ACK -e 38 -c 2 -a 0 -i 0 -k MAC 
- -t 1.674746803 -s 5 -d -1 -p ACK -e 38 -c 2 -a 0 -i 0 -k MAC
h -t 1.674746803 -s 5 -d -1 -p ACK -e 38 -c 2 -a 0 -i 0 -k MAC
r -t 1.674761803 -s 5 -d 5 -p ack -e 60 -c 2 -a 0 -i 16 -k AGT
+ -t 1.674761803 -s 5 -d -1 -p tcp -e 1540 -c 2 -a 0 -i 19 -k AGT 
- -t 1.674761803 -s 5 -d -1 -p tcp -e 1540 -c 2 -a 0 -i 19 -k AGT
h -t 1.674761803 -s 5 -d -1 -p tcp -e 1540 -c 2 -a 0 -i 19 -k AGT
+ -t 1.674761803 -s 5 -d 6 -p tcp -e 1560 -c 2 -a 0 -i 19 -k RTR 
- -t 1.674761803 -s 5 -d 6 -p tcp -e 1560 -c 2 -a 0 -i 19 -k RTR
h -t 1.674761803 -s 5 -d 6 -p tcp -e 1560 -c 2 -a 0 -i 19 -k RTR
+ -t 1.674761803 -s 5 -d -1 -p tcp -e 1540 -c 2 -a 0 -i 20 -k AGT 
- -t 1.674761803 -s 5 -d -1 -p tcp -e 1540 -c 2 -a 0 -i 20 -k AGT
h -t 1.674761803 -s 5 -d -1 -p tcp -e 1540 -c 2 -a 0 -i 20 -k AGT
+ -t 1.674761803 -s 5 -d 6 -p tcp -e 1560 -c 2 -a 0 -i 20 -k RTR 
- -t 1.674761803 -s 5 -d 6 -p tcp -e 1560 -c 2 -a 0 -i 20 -k RTR
h -t 1.674761803 -s 5 -d 6 -p tcp -e 1560 -c 2 -a 0 -i 20 -k RTR
r -t 1.675051361 -s 6 -d -1 -p ACK -e 38 -c 2 -a 0 -i 0 -k MAC
+ -t 1.675180803 -s 5 -d -1 -p RTS -e 44 -c 2 -a 0 -i 0 -k MAC 
- -t 1.675180803 -s 5 -d -1 -p RTS -e 44 -c 2 -a 0 -i 0 -k MAC
h -t 1.675180803 -s 5 -d -1 -p RTS -e 44 -c 2 -a 0 -i 0 -k MAC
r -t 1.675533361 -s 6 -d -1 -p RTS -e 44 -c 2 -a 0 -i 0 -k MAC
+ -t 1.675543361 -s 6 -d -1 -p CTS -e 38 -c 2 -a 0 -i 0 -k MAC 
- -t 1.675543361 -s 6 -d -1 -p CTS -e 38 -c 2 -a 0 -i 0 -k MAC
h -t 1.675543361 -s 6 -d -1 -p CTS -e 38 -c 2 -a 0 -i 0 -k MAC
r -t 1.675847918 -s 5 -d -1 -p CTS -e 38 -c 2 -a 0 -i 0 -k MAC
+ -t 1.675857918 -s 5 -d 6 -p tcp -e 1618 -c 2 -a 0 -i 19 -k MAC 
- -t 1.675857918 -s 5 -d 6 -p tcp -e 1618 -c 2 -a 0 -i 19 -k MAC
h -t 1.675857918 -s 5 -d 6 -p tcp -e 1618 -c 2 -a 0 -i 19 -k MAC
r -t 1.688802475 -s 6 -d 6 -p tcp -e 1560 -c 2 -a 0 -i 19 -k MAC
+ -t 1.688812475 -s 6 -d -1 -p ACK -e 38 -c 2 -a 0 -i 0 -k MAC 
- -t 1.688812475 -s 6 -d -1 -p ACK -e 38 -c 2 -a 0 -i 0 -k MAC
h -t 1.688812475 -s 6 -d -1 -p ACK -e 38 -c 2 -a 0 -i 0 -k MAC
r -t 1.688827475 -s 6 -d 6 -p tcp -e 1560 -c 2 -a 0 -i 19 -k AGT
+ -t 1.688827475 -s 6 -d -1 -p ack -e 40 -c 2 -a 0 -i 21 -k AGT 
- -t 1.688827475 -s 6 -d -1 -p ack -e 40 -c 2 -a 0 -i 21 -k AGT
h -t 1.688827475 -s 6 -d -1 -p ack -e 40 -c 2 -a 0 -i 21 -k AGT
+ -t 1.688827475 -s 6 -d 5 -p ack -e 60 -c 2 -a 0 -i 21 -k RTR 
- -t 1.688827475 -s 6 -d 5 -p ack -e 60 -c 2 -a 0 -i 21 -k RTR
h -t 1.688827475 -s 6 -d 5 -p ack -e 60 -c 2 -a 0 -i 21 -k RTR
r -t 1.689117032 -s 5 -d -1 -p ACK -e 38 -c 2 -a 0 -i 0 -k MAC
+ -t 1.689317025 -s 9 -d -1 -p message -e 90 -c 2 -a 0 -i 18 -k MAC 
- -t 1.689317025 -s 9 -d -1 -p message -e 90 -c 2 -a 0 -i 18 -k MAC
h -t 1.689317025 -s 9 -d -1 -p message -e 90 -c 2 -a 0 -i 18 -k MAC
r -t 1.690037632 -s 10 -d -1 -p message -e 32 -c 2 -a 0 -i 18 -k MAC
r -t 1.690037828 -s 6 -d -1 -p message -e 32 -c 2 -a 0 -i 18 -k MAC
r -t 1.690062632 -s 10 -d -1 -p message -e 32 -c 2 -a 0 -i 18 -k RTR
r -t 1.690062828 -s 6 -d -1 -p message -e 32 -c 2 -a 0 -i 18 -k RTR
+ -t 1.690147828 -s 6 -d -1 -p RTS -e 44 -c 2 -a 0 -i 0 -k MAC 
- -t 1.690147828 -s 6 -d -1 -p RTS -e 44 -c 2 -a 0 -i 0 -k MAC
h -t 1.690147828 -s 6 -d -1 -p RTS -e 44 -c 2 -a 0 -i 0 -k MAC
r -t 1.690500384 -s 5 -d -1 -p RTS -e 44 -c 2 -a 0 -i 0 -k MAC
+ -t 1.690510384 -s 5 -d -1 -p CTS -e 38 -c 2 -a 0 -i 0 -k MAC 
- -t 1.690510384 -s 5 -d -1 -p CTS -e 38 -c 2 -a 0 -i 0 -k MAC
h -t 1.690510384 -s 5 -d -1 -p CTS -e 38 -c 2 -a 0 -i 0 -k MAC
r -t 1.690814940 -s 6 -d -1 -p CTS -e 38 -c 2 -a 0 -i 0 -k MAC
+ -t 1.690824940 -s 6 -d 5 -p ack -e 118 -c 2 -a 0 -i 17 -k MAC 
- -t 1.690824940 -s 6 -d 5 -p ack -e 118 -c 2 -a 0 -i 17 -k MAC
h -t 1.690824940 -s 6 -d 5 -p ack -e 118 -c 2 -a 0 -i 17 -k MAC
r -t 1.691769496 -s 5 -d 5 -p ack -e 60 -c 2 -a 0 -i 17 -k MAC
+ -t 1.691779496 -s 5 -d -1 -p ACK -e 38 -c 2 -a 0 -i 0 -k MAC 
- -t 1.691779496 -s 5 -d -1 -p ACK -e 38 -c 2 -a 0 -i 0 -k MAC
h -t 1.691779496 -s 5 -d -1 -p ACK -e 38 -c 2 -a 0 -i 0 -k MAC
r -t 1.691794496 -s 5 -d 5 -p ack -e 60 -c 2 -a 0 -i 17 -k AGT
+ -t 1.691794496 -s 5 -d -1 -p tcp -e 1540 -c 2 -a 0 -i 22 -k AGT 
- -t 1.691794496 -s 5 -d -1 -p tcp -e 1540 -c 2 -a 0 -i 22 -k AGT
h -t 1.691794496 -s 5 -d -1 -p tcp -e 1540 -c 2 -a 0 -i 22 -k AGT
+ -t 1.691794496 -s 5 -d 6 -p tcp -e 1560 -c 2 -a 0 -i 22 -k RTR 
- -t 1.691794496 -s 5 -d 6 -p tcp -e 1560 -c 2 -a 0 -i 22 -k RTR
h -t 1.691794496 -s 5 -d 6 -p tcp -e 1560 -c 2 -a 0 -i 22 -k RTR
+ -t 1.691794496 -s 5 -d -1 -p tcp -e 1540 -c 2 -a 0 -i 23 -k AGT 
- -t 1.691794496 -s 5 -d -1 -p tcp -e 1540 -c 2 -a 0 -i 23 -k AGT
h -t 1.691794496 -s 5 -d -1 -p tcp -e 1540 -c 2 -a 0 -i 23 -k AGT
+ -t 1.691794496 -s 5 -d 6 -p tcp -e 1560 -c 2 -a 0 -i 23 -k RTR 
- -t 1.691794496 -s 5 -d 6 -p tcp -e 1560 -c 2 -a 0 -i 23 -k RTR
h -t 1.691794496 -s 5 -d 6 -p tcp -e 1560 -c 2 -a 0 -i 23 -k RTR
r -t 1.692084052 -s 6 -d -1 -p ACK -e 38 -c 2 -a 0 -i 0 -k MAC
+ -t 1.692193496 -s 5 -d -1 -p RTS -e 44 -c 2 -a 0 -i 0 -k MAC 
- -t 1.692193496 -s 5 -d -1 -p RTS -e 44 -c 2 -a 0 -i 0 -k MAC
h -t 1.692193496 -s 5 -d -1 -p RTS -e 44 -c 2 -a 0 -i 0 -k MAC
r -t 1.692546052 -s 6 -d -1 -p RTS -e 44 -c 2 -a 0 -i 0 -k MAC
+ -t 1.692556052 -s 6 -d -1 -p CTS -e 38 -c 2 -a 0 -i 0 -k MAC 
- -t 1.692556052 -s 6 -d -1 -p CTS -e 38 -c 2 -a 0 -i 0 -k MAC
h -t 1.692556052 -s 6 -d -1 -p CTS -e 38 -c 2 -a 0 -i 0 -k MAC
r -t 1.692860608 -s 5 -d -1 -p CTS -e 38 -c 2 -a 0 -i 0 -k MAC
+ -t 1.692870608 -s 5 -d 6 -p tcp -e 1618 -c 2 -a 0 -i 20 -k MAC 
- -t 1.692870608 -s 5 -d 6 -p tcp -e 1618 -c 2 -a 0 -i 20 -k MAC
h -t 1.692870608 -s 5 -d 6 -p tcp -e 1618 -c 2 -a 0 -i 20 -k MAC
r -t 1.705815164 -s 6 -d 6 -p tcp -e 1560 -c 2 -a 0 -i 20 -k MAC
+ -t 1.705825164 -s 6 -d -1 -p ACK -e 38 -c 2 -a 0 -i 0 -k MAC 
- -t 1.705825164 -s 6 -d -1 -p ACK -e 38 -c 2 -a 0 -i 0 -k MAC
h -t 1.705825164 -s 6 -d -1 -p ACK -e 38 -c 2 -a 0 -i 0 -k MAC
r -t 1.705840164 -s 6 -d 6 -p tcp -e 1560 -c 2 -a 0 -i 20 -k AGT
+ -t 1.705840164 -s 6 -d -1 -p ack -e 40 -c 2 -a 0 -i 24 -k AGT 
- -t 1.705840164 -s 6 -d -1 -p ack -e 40 -c 2 -a 0 -i 24 -k AGT
h -t 1.705840164 -s 6 -d -1 -p ack -e 40 -c 2 -a 0 -i 24 -k AGT
+ -t 1.705840164 -s 6 -d 5 -p ack -e 60 -c 2 -a 0 -i 24 -k RTR 
- -t 1.705840164 -s 6 -d 5 -p ack -e 60 -c 2 -a 0 -i 24 -k RTR
h -t 1.705840164 -s 6 -d 5 -p ack -e 60 -c 2 -a 0 -i 24 -k RTR
r -t 1.706129718 -s 5 -d -1 -p ACK -e 38 -c 2 -a 0 -i 0 -k MAC
+ -t 1.706479164 -s 6 -d -1 -p RTS -e 44 -c 2 -a 0 -i 0 -k MAC 
- -t 1.706479164 -s 6 -d -1 -p RTS -e 44 -c 2 -a 0 -i 0 -k MAC
h -t 1.706479164 -s 6 -d -1 -p RTS -e 44 -c 2 -a 0 -i 0 -k MAC
r -t 1.706831718 -s 5 -d -1 -p RTS -e 44 -c 2 -a 0 -i 0 -k MAC
+ -t 1.706841718 -s 5 -d -1 -p CTS -e 38 -c 2 -a 0 -i 0 -k MAC 
- -t 1.706841718 -s 5 -d -1 -p CTS -e 38 -c 2 -a 0 -i 0 -k MAC
h -t 1.706841718 -s 5 -d -1 -p CTS -e 38 -c 2 -a 0 -i 0 -k MAC
r -t 1.707146273 -s 6 -d -1 -p CTS -e 38 -c 2 -a 0 -i 0 -k MAC
+ -t 1.707156273 -s 6 -d 5 -p ack -e 118 -c 2 -a 0 -i 21 -k MAC 
- -t 1.707156273 -s 6 -d 5 -p ack -e 118 -c 2 -a 0 -i 21 -k MAC
h -t 1.707156273 -s 6 -d 5 -p ack -e 118 -c 2 -a 0 -i 21 -k MAC
r -t 1.708100827 -s 5 -d 5 -p ack -e 60 -c 2 -a 0 -i 21 -k MAC
+ -t 1.708110827 -s 5 -d -1 -p ACK -e 38 -c 2 -a 0 -i 0 -k MAC 
- -t 1.708110827 -s 5 -d -1 -p ACK -e 38 -c 2 -a 0 -i 0 -k MAC
h -t 1.708110827 -s 5 -d -1 -p ACK -e 38 -c 2 -a 0 -i 0 -k MAC
r -t 1.708125827 -s 5 -d 5 -p ack -e 60 -c 2 -a 0 -i 21 -k AGT
+ -t 1.708125827 -s 5 -d -1 -p tcp -e 1540 -c 2 -a 0 -i 25 -k AGT 
- -t 1.708125827 -s 5 -d -1 -p tcp -e 1540 -c 2 -a 0 -i 25 -k AGT
h -t 1.708125827 -s 5 -d -1 -p tcp -e 1540 -c 2 -a 0 -i 25 -k AGT
+ -t 1.708125827 -s 5 -d 6 -p tcp -e 1560 -c 2 -a 0 -i 25 -k RTR 
- -t 1.708125827 -s 5 -d 6 -p tcp -e 1560 -c 2 -a 0 -i 25 -k RTR
h -t 1.708125827 -s 5 -d 6 -p tcp -e 1560 -c 2 -a 0 -i 25 -k RTR
+ -t 1.708125827 -s 5 -d -1 -p tcp -e 1540 -c 2 -a 0 -i 26 -k AGT 
- -t 1.708125827 -s 5 -d -1 -p tcp -e 1540 -c 2 -a 0 -i 26 -k AGT
h -t 1.708125827 -s 5 -d -1 -p tcp -e 1540 -c 2 -a 0 -i 26 -k AGT
+ -t 1.708125827 -s 5 -d 6 -p tcp -e 1560 -c 2 -a 0 -i 26 -k RTR 
- -t 1.708125827 -s 5 -d 6 -p tcp -e 1560 -c 2 -a 0 -i 26 -k RTR
h -t 1.708125827 -s 5 -d 6 -p tcp -e 1560 -c 2 -a 0 -i 26 -k RTR
r -t 1.708415382 -s 6 -d -1 -p ACK -e 38 -c 2 -a 0 -i 0 -k MAC
+ -t 1.708585382 -s 6 -d -1 -p RTS -e 44 -c 2 -a 0 -i 0 -k MAC 
- -t 1.708585382 -s 6 -d -1 -p RTS -e 44 -c 2 -a 0 -i 0 -k MAC
h -t 1.708585382 -s 6 -d -1 -p RTS -e 44 -c 2 -a 0 -i 0 -k MAC
r -t 1.708937936 -s 5 -d -1 -p RTS -e 44 -c 2 -a 0 -i 0 -k MAC
+ -t 1.708947936 -s 5 -d -1 -p CTS -e 38 -c 2 -a 0 -i 0 -k MAC 
- -t 1.708947936 -s 5 -d -1 -p CTS -e 38 -c 2 -a 0 -i 0 -k MAC
h -t 1.708947936 -s 5 -d -1 -p CTS -e 38 -c 2 -a 0 -i 0 -k MAC
r -t 1.709252491 -s 6 -d -1 -p CTS -e 38 -c 2 -a 0 -i 0 -k MAC
+ -t 1.709262491 -s 6 -d 5 -p ack -e 118 -c 2 -a 0 -i 24 -k MAC 
- -t 1.709262491 -s 6 -d 5 -p ack -e 118 -c 2 -a 0 -i 24 -k MAC
h -t 1.709262491 -s 6 -d 5 -p ack -e 118 -c 2 -a 0 -i 24 -k MAC
r -t 1.710207045 -s 5 -d 5 -p ack -e 60 -c 2 -a 0 -i 24 -k MAC
+ -t 1.710217045 -s 5 -d -1 -p ACK -e 38 -c 2 -a 0 -i 0 -k MAC 
- -t 1.710217045 -s 5 -d -1 -p ACK -e 38 -c 2 -a 0 -i 0 -k MAC
h -t 1.710217045 -s 5 -d -1 -p ACK -e 38 -c 2 -a 0 -i 0 -k MAC
r -t 1.710232045 -s 5 -d 5 -p ack -e 60 -c 2 -a 0 -i 24 -k AGT
+ -t 1.710232045 -s 5 -d -1 -p tcp -e 1540 -c 2 -a 0 -i 27 -k AGT 
- -t 1.710232045 -s 5 -d -1 -p tcp -e 1540 -c 2 -a 0 -i 27 -k AGT
h -t 1.710232045 -s 5 -d -1 -p tcp -e 1540 -c 2 -a 0 -i 27 -k AGT
+ -t 1.710232045 -s 5 -d 6 -p tcp -e 1560 -c 2 -a 0 -i 27 -k RTR 
- -t 1.710232045 -s 5 -d 6 -p tcp -e 1560 -c 2 -a 0 -i 27 -k RTR
h -t 1.710232045 -s 5 -d 6 -p tcp -e 1560 -c 2 -a 0 -i 27 -k RTR
+ -t 1.710232045 -s 5 -d -1 -p tcp -e 1540 -c 2 -a 0 -i 28 -k AGT 
- -t 1.710232045 -s 5 -d -1 -p tcp -e 1540 -c 2 -a 0 -i 28 -k AGT
h -t 1.710232045 -s 5 -d -1 -p tcp -e 1540 -c 2 -a 0 -i 28 -k AGT
+ -t 1.710232045 -s 5 -d 6 -p tcp -e 1560 -c 2 -a 0 -i 28 -k RTR 
- -t 1.710232045 -s 5 -d 6 -p tcp -e 1560 -c 2 -a 0 -i 28 -k RTR
h -t 1.710232045 -s 5 -d 6 -p tcp -e 1560 -c 2 -a 0 -i 28 -k RTR
r -t 1.710521599 -s 6 -d -1 -p ACK -e 38 -c 2 -a 0 -i 0 -k MAC
+ -t 1.710771045 -s 5 -d -1 -p RTS -e 44 -c 2 -a 0 -i 0 -k MAC 
- -t 1.710771045 -s 5 -d -1 -p RTS -e 44 -c 2 -a 0 -i 0 -k MAC