n -t * -s 0  -x 995 -y 556 -Z 0 -z 30  -v circle -c green
n -t * -s 1  -x 482 -y 637 -Z 0 -z 30  -v circle -c green
n -t * -s 2  -x 549 -y 950 -Z 0 -z 30  -v circle -c green
n -t * -s 3  -x 708 -y 473 -Z 0 -z 30  -v circle -c green
n -t * -s 4  -x 233 -y 949 -Z 0 -z 30  -v circle -c green
n -t * -s 5  -x 354 -y 555 -Z 0 -z 30  -v circle -c green
n -t * -s 6  -x 432 -y 362 -Z 0 -z 30  -v circle -c green
n -t * -s 7  -x 587 -y 512 -Z 0 -z 30  -v circle -c green
n -t * -s 8  -x 456 -y 471 -Z 0 -z 30  -v circle -c green
n -t * -s 9  -x 248 -y 174 -Z 0 -z 30  -v circle -c green
n -t * -s 10  -x 388 -y 272 -Z 0 -z 30  -v circle -c green
n -t * -s 11  -x 475 -y 985 -Z 0 -z 30  -v circle -c green
V -t * -v 1.0a5 -a 0
W -t * -x 1000 -y 1000
A -t * -n 1 -p 0 -o 0xffffffff -c 31 -a 1
A -t * -h 1 -m 2147483647 -s 0
n -t 0.000000 -s 1 -x 482.000000 -y 637.000000 -U 0.741025 -V -24.989015 -T 24.290673
n -t 0.000000 -s 4 -x 233.000000 -y 949.000000 -U 0.737932 -V -4.945246 -T 90.794273
n -t 0.000000 -s 5 -x 354.000000 -y 555.000000 -U -17.365367 -V -24.463116 -T 14.511643
n -t 0.000000 -s 8 -x 456.000000 -y 471.000000 -U -14.742378 -V -20.190648 -T 21.841795
n -t 0.000000 -s 11 -x 475.000000 -y 985.000000 -U 0.130845 -V -4.998288 -T 191.065434
n -t 0.500000 -s 0 -x 995.000000 -y 556.000000 -U -22.964628 -V -9.880580 -T 25.909411
n -t 0.500000 -s 3 -x 708.000000 -y 473.000000 -U -24.761767 -V -7.928109 -T 9.207744
n -t 0.500000 -s 6 -x 432.000000 -y 362.000000 -U -13.816577 -V 9.904655 -T 24.029106
n -t 0.500000 -s 7 -x 587.000000 -y 512.000000 -U 11.759304 -V -22.061704 -T 9.609412
n -t 0.500000 -s 10 -x 388.000000 -y 272.000000 -U 23.745433 -V 10.590298 -T 12.086535
v -t 0.5 -e sim_annotation 0.5 1 Starting FTP0 node5 to node6
v -t 0.5 -e sim_annotation 0.5 2 Starting FTP1 node7 to node9
n -t 0.700000 -s 2 -x 549.000000 -y 950.000000 -U -1.151030 -V -19.966851 -T 42.570559
n -t 0.700000 -s 9 -x 248.000000 -y 174.000000 -U 13.833688 -V 14.443998 -T 29.493220
+ -t 1.000000000 -s 5 -d -1 -p tcp -e 40 -c 2 -a 0 -i 0 -k AGT 
- -t 1.000000000 -s 5 -d -1 -p tcp -e 40 -c 2 -a 0 -i 0 -k AGT
h -t 1.000000000 -s 5 -d -1 -p tcp -e 40 -c 2 -a 0 -i 0 -k AGT
+ -t 1.000000000 -s 7 -d -1 -p tcp -e 40 -c 2 -a 0 -i 2 -k AGT 
- -t 1.000000000 -s 7 -d -1 -p tcp -e 40 -c 2 -a 0 -i 2 -k AGT
h -t 1.000000000 -s 7 -d -1 -p tcp -e 40 -c 2 -a 0 -i 2 -k AGT
+ -t 1.001290243 -s 7 -d -1 -p DSR -e 32 -c 2 -a 0 -i 3 -k RTR 
- -t 1.001290243 -s 7 -d -1 -p DSR -e 32 -c 2 -a 0 -i 3 -k RTR
h -t 1.001290243 -s 7 -d -1 -p DSR -e 32 -c 2 -a 0 -i 3 -k RTR
+ -t 1.001425243 -s 7 -d -1 -p DSR -e 90 -c 2 -a 0 -i 3 -k MAC 
- -t 1.001425243 -s 7 -d -1 -p DSR -e 90 -c 2 -a 0 -i 3 -k MAC
h -t 1.001425243 -s 7 -d -1 -p DSR -e 90 -c 2 -a 0 -i 3 -k MAC
r -t 1.002145602 -s 3 -d -1 -p DSR -e 32 -c 2 -a 0 -i 3 -k MAC
r -t 1.002145765 -s 1 -d -1 -p DSR -e 32 -c 2 -a 0 -i 3 -k MAC
r -t 1.002145776 -s 8 -d -1 -p DSR -e 32 -c 2 -a 0 -i 3 -k MAC
r -t 1.002145959 -s 6 -d -1 -p DSR -e 32 -c 2 -a 0 -i 3 -k MAC
+ -t 1.003034721 -s 5 -d -1 -p DSR -e 32 -c 2 -a 0 -i 1 -k RTR 
- -t 1.003034721 -s 5 -d -1 -p DSR -e 32 -c 2 -a 0 -i 1 -k RTR
h -t 1.003034721 -s 5 -d -1 -p DSR -e 32 -c 2 -a 0 -i 1 -k RTR
+ -t 1.003629721 -s 5 -d -1 -p DSR -e 90 -c 2 -a 0 -i 1 -k MAC 
- -t 1.003629721 -s 5 -d -1 -p DSR -e 90 -c 2 -a 0 -i 1 -k MAC
h -t 1.003629721 -s 5 -d -1 -p DSR -e 90 -c 2 -a 0 -i 1 -k MAC
r -t 1.004350159 -s 8 -d -1 -p DSR -e 32 -c 2 -a 0 -i 1 -k MAC
r -t 1.004350279 -s 1 -d -1 -p DSR -e 32 -c 2 -a 0 -i 1 -k MAC
r -t 1.004350341 -s 6 -d -1 -p DSR -e 32 -c 2 -a 0 -i 1 -k MAC
+ -t 1.005225828 -s 6 -d 5 -p DSR -e 44 -c 2 -a 0 -i 4 -k RTR 
- -t 1.005225828 -s 6 -d 5 -p DSR -e 44 -c 2 -a 0 -i 4 -k RTR
h -t 1.005225828 -s 6 -d 5 -p DSR -e 44 -c 2 -a 0 -i 4 -k RTR
+ -t 1.005880828 -s 6 -d -1 -p ARP -e 86 -c 2 -a 0 -i 0 -k MAC 
- -t 1.005880828 -s 6 -d -1 -p ARP -e 86 -c 2 -a 0 -i 0 -k MAC
h -t 1.005880828 -s 6 -d -1 -p ARP -e 86 -c 2 -a 0 -i 0 -k MAC
r -t 1.006569112 -s 8 -d -1 -p ARP -e 28 -c 2 -a 0 -i 0 -k MAC
r -t 1.006569138 -s 10 -d -1 -p ARP -e 28 -c 2 -a 0 -i 0 -k MAC
r -t 1.006569447 -s 5 -d -1 -p ARP -e 28 -c 2 -a 0 -i 0 -k MAC
r -t 1.006569544 -s 7 -d -1 -p ARP -e 28 -c 2 -a 0 -i 0 -k MAC
+ -t 1.007104447 -s 5 -d -1 -p RTS -e 44 -c 2 -a 0 -i 0 -k MAC 
- -t 1.007104447 -s 5 -d -1 -p RTS -e 44 -c 2 -a 0 -i 0 -k MAC
h -t 1.007104447 -s 5 -d -1 -p RTS -e 44 -c 2 -a 0 -i 0 -k MAC
r -t 1.007457066 -s 6 -d -1 -p RTS -e 44 -c 2 -a 0 -i 0 -k MAC
+ -t 1.007467066 -s 6 -d -1 -p CTS -e 38 -c 2 -a 0 -i 0 -k MAC 
- -t 1.007467066 -s 6 -d -1 -p CTS -e 38 -c 2 -a 0 -i 0 -k MAC
h -t 1.007467066 -s 6 -d -1 -p CTS -e 38 -c 2 -a 0 -i 0 -k MAC
r -t 1.007771685 -s 5 -d -1 -p CTS -e 38 -c 2 -a 0 -i 0 -k MAC
+ -t 1.007781685 -s 5 -d -1 -p ARP -e 86 -c 2 -a 0 -i 0 -k MAC 
- -t 1.007781685 -s 5 -d -1 -p ARP -e 86 -c 2 -a 0 -i 0 -k MAC
h -t 1.007781685 -s 5 -d -1 -p ARP -e 86 -c 2 -a 0 -i 0 -k MAC
r -t 1.008470305 -s 6 -d -1 -p ARP -e 28 -c 2 -a 0 -i 0 -k MAC
+ -t 1.008480305 -s 6 -d -1 -p ACK -e 38 -c 2 -a 0 -i 0 -k MAC 
- -t 1.008480305 -s 6 -d -1 -p ACK -e 38 -c 2 -a 0 -i 0 -k MAC
h -t 1.008480305 -s 6 -d -1 -p ACK -e 38 -c 2 -a 0 -i 0 -k MAC
r -t 1.008784924 -s 5 -d -1 -p ACK -e 38 -c 2 -a 0 -i 0 -k MAC
+ -t 1.009174305 -s 6 -d -1 -p RTS -e 44 -c 2 -a 0 -i 0 -k MAC 
- -t 1.009174305 -s 6 -d -1 -p RTS -e 44 -c 2 -a 0 -i 0 -k MAC
h -t 1.009174305 -s 6 -d -1 -p RTS -e 44 -c 2 -a 0 -i 0 -k MAC
r -t 1.009526924 -s 5 -d -1 -p RTS -e 44 -c 2 -a 0 -i 0 -k MAC
+ -t 1.009536924 -s 5 -d -1 -p CTS -e 38 -c 2 -a 0 -i 0 -k MAC 
- -t 1.009536924 -s 5 -d -1 -p CTS -e 38 -c 2 -a 0 -i 0 -k MAC
h -t 1.009536924 -s 5 -d -1 -p CTS -e 38 -c 2 -a 0 -i 0 -k MAC
r -t 1.009841543 -s 6 -d -1 -p CTS -e 38 -c 2 -a 0 -i 0 -k MAC
+ -t 1.009851543 -s 6 -d 5 -p DSR -e 102 -c 2 -a 0 -i 4 -k MAC 
- -t 1.009851543 -s 6 -d 5 -p DSR -e 102 -c 2 -a 0 -i 4 -k MAC
h -t 1.009851543 -s 6 -d 5 -p DSR -e 102 -c 2 -a 0 -i 4 -k MAC
r -t 1.010668162 -s 5 -d 5 -p DSR -e 44 -c 2 -a 0 -i 4 -k MAC
+ -t 1.010678162 -s 5 -d -1 -p ACK -e 38 -c 2 -a 0 -i 0 -k MAC 
- -t 1.010678162 -s 5 -d -1 -p ACK -e 38 -c 2 -a 0 -i 0 -k MAC
h -t 1.010678162 -s 5 -d -1 -p ACK -e 38 -c 2 -a 0 -i 0 -k MAC
+ -t 1.010693162 -s 5 -d 6 -p tcp -e 76 -c 2 -a 0 -i 0 -k RTR 
- -t 1.010693162 -s 5 -d 6 -p tcp -e 76 -c 2 -a 0 -i 0 -k RTR
h -t 1.010693162 -s 5 -d 6 -p tcp -e 76 -c 2 -a 0 -i 0 -k RTR
r -t 1.010982780 -s 6 -d -1 -p ACK -e 38 -c 2 -a 0 -i 0 -k MAC
+ -t 1.011212162 -s 5 -d -1 -p RTS -e 44 -c 2 -a 0 -i 0 -k MAC 
- -t 1.011212162 -s 5 -d -1 -p RTS -e 44 -c 2 -a 0 -i 0 -k MAC
h -t 1.011212162 -s 5 -d -1 -p RTS -e 44 -c 2 -a 0 -i 0 -k MAC
r -t 1.011564780 -s 6 -d -1 -p RTS -e 44 -c 2 -a 0 -i 0 -k MAC
+ -t 1.011574780 -s 6 -d -1 -p CTS -e 38 -c 2 -a 0 -i 0 -k MAC 
- -t 1.011574780 -s 6 -d -1 -p CTS -e 38 -c 2 -a 0 -i 0 -k MAC
h -t 1.011574780 -s 6 -d -1 -p CTS -e 38 -c 2 -a 0 -i 0 -k MAC
r -t 1.011879399 -s 5 -d -1 -p CTS -e 38 -c 2 -a 0 -i 0 -k MAC
+ -t 1.011889399 -s 5 -d 6 -p tcp -e 134 -c 2 -a 0 -i 0 -k MAC 
- -t 1.011889399 -s 5 -d 6 -p tcp -e 134 -c 2 -a 0 -i 0 -k MAC
h -t 1.011889399 -s 5 -d 6 -p tcp -e 134 -c 2 -a 0 -i 0 -k MAC
r -t 1.012962018 -s 6 -d 6 -p tcp -e 76 -c 2 -a 0 -i 0 -k MAC
+ -t 1.012972018 -s 6 -d -1 -p ACK -e 38 -c 2 -a 0 -i 0 -k MAC 
- -t 1.012972018 -s 6 -d -1 -p ACK -e 38 -c 2 -a 0 -i 0 -k MAC
h -t 1.012972018 -s 6 -d -1 -p ACK -e 38 -c 2 -a 0 -i 0 -k MAC
r -t 1.012987018 -s 6 -d 6 -p tcp -e 40 -c 2 -a 0 -i 0 -k AGT
+ -t 1.012987018 -s 6 -d -1 -p ack -e 40 -c 2 -a 0 -i 5 -k AGT 
- -t 1.012987018 -s 6 -d -1 -p ack -e 40 -c 2 -a 0 -i 5 -k AGT
h -t 1.012987018 -s 6 -d -1 -p ack -e 40 -c 2 -a 0 -i 5 -k AGT
+ -t 1.012987018 -s 6 -d 5 -p ack -e 76 -c 2 -a 0 -i 5 -k RTR 
- -t 1.012987018 -s 6 -d 5 -p ack -e 76 -c 2 -a 0 -i 5 -k RTR
h -t 1.012987018 -s 6 -d 5 -p ack -e 76 -c 2 -a 0 -i 5 -k RTR
r -t 1.013276637 -s 5 -d -1 -p ACK -e 38 -c 2 -a 0 -i 0 -k MAC
+ -t 1.013406018 -s 6 -d -1 -p RTS -e 44 -c 2 -a 0 -i 0 -k MAC 
- -t 1.013406018 -s 6 -d -1 -p RTS -e 44 -c 2 -a 0 -i 0 -k MAC
h -t 1.013406018 -s 6 -d -1 -p RTS -e 44 -c 2 -a 0 -i 0 -k MAC
r -t 1.013758637 -s 5 -d -1 -p RTS -e 44 -c 2 -a 0 -i 0 -k MAC
+ -t 1.013768637 -s 5 -d -1 -p CTS -e 38 -c 2 -a 0 -i 0 -k MAC 
- -t 1.013768637 -s 5 -d -1 -p CTS -e 38 -c 2 -a 0 -i 0 -k MAC
h -t 1.013768637 -s 5 -d -1 -p CTS -e 38 -c 2 -a 0 -i 0 -k MAC
r -t 1.014073255 -s 6 -d -1 -p CTS -e 38 -c 2 -a 0 -i 0 -k MAC
+ -t 1.014083255 -s 6 -d 5 -p ack -e 134 -c 2 -a 0 -i 5 -k MAC 
- -t 1.014083255 -s 6 -d 5 -p ack -e 134 -c 2 -a 0 -i 5 -k MAC
h -t 1.014083255 -s 6 -d 5 -p ack -e 134 -c 2 -a 0 -i 5 -k MAC
r -t 1.015155874 -s 5 -d 5 -p ack -e 76 -c 2 -a 0 -i 5 -k MAC
+ -t 1.015165874 -s 5 -d -1 -p ACK -e 38 -c 2 -a 0 -i 0 -k MAC 
- -t 1.015165874 -s 5 -d -1 -p ACK -e 38 -c 2 -a 0 -i 0 -k MAC
h -t 1.015165874 -s 5 -d -1 -p ACK -e 38 -c 2 -a 0 -i 0 -k MAC
r -t 1.015180874 -s 5 -d 5 -p ack -e 40 -c 2 -a 0 -i 5 -k AGT
+ -t 1.015180874 -s 5 -d -1 -p tcp -e 1540 -c 2 -a 0 -i 6 -k AGT 
- -t 1.015180874 -s 5 -d -1 -p tcp -e 1540 -c 2 -a 0 -i 6 -k AGT
h -t 1.015180874 -s 5 -d -1 -p tcp -e 1540 -c 2 -a 0 -i 6 -k AGT
+ -t 1.015180874 -s 5 -d -1 -p tcp -e 1540 -c 2 -a 0 -i 7 -k AGT 
- -t 1.015180874 -s 5 -d -1 -p tcp -e 1540 -c 2 -a 0 -i 7 -k AGT
h -t 1.015180874 -s 5 -d -1 -p tcp -e 1540 -c 2 -a 0 -i 7 -k AGT
+ -t 1.015180874 -s 5 -d 6 -p tcp -e 1576 -c 2 -a 0 -i 6 -k RTR 
- -t 1.015180874 -s 5 -d 6 -p tcp -e 1576 -c 2 -a 0 -i 6 -k RTR
h -t 1.015180874 -s 5 -d 6 -p tcp -e 1576 -c 2 -a 0 -i 6 -k RTR
+ -t 1.015180874 -s 5 -d 6 -p tcp -e 1576 -c 2 -a 0 -i 7 -k RTR 
- -t 1.015180874 -s 5 -d 6 -p tcp -e 1576 -c 2 -a 0 -i 7 -k RTR
h -t 1.015180874 -s 5 -d 6 -p tcp -e 1576 -c 2 -a 0 -i 7 -k RTR
r -t 1.015470492 -s 6 -d -1 -p ACK -e 38 -c 2 -a 0 -i 0 -k MAC
+ -t 1.015879874 -s 5 -d -1 -p RTS -e 44 -c 2 -a 0 -i 0 -k MAC 
- -t 1.015879874 -s 5 -d -1 -p RTS -e 44 -c 2 -a 0 -i 0 -k MAC
h -t 1.015879874 -s 5 -d -1 -p RTS -e 44 -c 2 -a 0 -i 0 -k MAC
r -t 1.016232492 -s 6 -d -1 -p RTS -e 44 -c 2 -a 0 -i 0 -k MAC
+ -t 1.016242492 -s 6 -d -1 -p CTS -e 38 -c 2 -a 0 -i 0 -k MAC 
- -t 1.016242492 -s 6 -d -1 -p CTS -e 38 -c 2 -a 0 -i 0 -k MAC
h -t 1.016242492 -s 6 -d -1 -p CTS -e 38 -c 2 -a 0 -i 0 -k MAC
r -t 1.016547111 -s 5 -d -1 -p CTS -e 38 -c 2 -a 0 -i 0 -k MAC
+ -t 1.016557111 -s 5 -d 6 -p tcp -e 1634 -c 2 -a 0 -i 6 -k MAC 
- -t 1.016557111 -s 5 -d 6 -p tcp -e 1634 -c 2 -a 0 -i 6 -k MAC
h -t 1.016557111 -s 5 -d 6 -p tcp -e 1634 -c 2 -a 0 -i 6 -k MAC
r -t 1.029629729 -s 6 -d 6 -p tcp -e 1576 -c 2 -a 0 -i 6 -k MAC
+ -t 1.029639729 -s 6 -d -1 -p ACK -e 38 -c 2 -a 0 -i 0 -k MAC 
- -t 1.029639729 -s 6 -d -1 -p ACK -e 38 -c 2 -a 0 -i 0 -k MAC
h -t 1.029639729 -s 6 -d -1 -p ACK -e 38 -c 2 -a 0 -i 0 -k MAC
r -t 1.029654729 -s 6 -d 6 -p tcp -e 1540 -c 2 -a 0 -i 6 -k AGT
+ -t 1.029654729 -s 6 -d -1 -p ack -e 40 -c 2 -a 0 -i 8 -k AGT 
- -t 1.029654729 -s 6 -d -1 -p ack -e 40 -c 2 -a 0 -i 8 -k AGT
h -t 1.029654729 -s 6 -d -1 -p ack -e 40 -c 2 -a 0 -i 8 -k AGT
+ -t 1.029654729 -s 6 -d 5 -p ack -e 76 -c 2 -a 0 -i 8 -k RTR 
- -t 1.029654729 -s 6 -d 5 -p ack -e 76 -c 2 -a 0 -i 8 -k RTR
h -t 1.029654729 -s 6 -d 5 -p ack -e 76 -c 2 -a 0 -i 8 -k RTR
r -t 1.029944346 -s 5 -d -1 -p ACK -e 38 -c 2 -a 0 -i 0 -k MAC
+ -t 1.030034346 -s 5 -d -1 -p RTS -e 44 -c 2 -a 0 -i 0 -k MAC 
- -t 1.030034346 -s 5 -d -1 -p RTS -e 44 -c 2 -a 0 -i 0 -k MAC
h -t 1.030034346 -s 5 -d -1 -p RTS -e 44 -c 2 -a 0 -i 0 -k MAC
r -t 1.030386963 -s 6 -d -1 -p RTS -e 44 -c 2 -a 0 -i 0 -k MAC
+ -t 1.030396963 -s 6 -d -1 -p CTS -e 38 -c 2 -a 0 -i 0 -k MAC 
- -t 1.030396963 -s 6 -d -1 -p CTS -e 38 -c 2 -a 0 -i 0 -k MAC
h -t 1.030396963 -s 6 -d -1 -p CTS -e 38 -c 2 -a 0 -i 0 -k MAC
r -t 1.030701580 -s 5 -d -1 -p CTS -e 38 -c 2 -a 0 -i 0 -k MAC
+ -t 1.030711580 -s 5 -d 6 -p tcp -e 1634 -c 2 -a 0 -i 7 -k MAC 
- -t 1.030711580 -s 5 -d 6 -p tcp -e 1634 -c 2 -a 0 -i 7 -k MAC
h -t 1.030711580 -s 5 -d 6 -p tcp -e 1634 -c 2 -a 0 -i 7 -k MAC
r -t 1.043784197 -s 6 -d 6 -p tcp -e 1576 -c 2 -a 0 -i 7 -k MAC
+ -t 1.043794197 -s 6 -d -1 -p ACK -e 38 -c 2 -a 0 -i 0 -k MAC 
- -t 1.043794197 -s 6 -d -1 -p ACK -e 38 -c 2 -a 0 -i 0 -k MAC
h -t 1.043794197 -s 6 -d -1 -p ACK -e 38 -c 2 -a 0 -i 0 -k MAC
r -t 1.043809197 -s 6 -d 6 -p tcp -e 1540 -c 2 -a 0 -i 7 -k AGT
+ -t 1.043809197 -s 6 -d -1 -p ack -e 40 -c 2 -a 0 -i 10 -k AGT 
- -t 1.043809197 -s 6 -d -1 -p ack -e 40 -c 2 -a 0 -i 10 -k AGT
h -t 1.043809197 -s 6 -d -1 -p ack -e 40 -c 2 -a 0 -i 10 -k AGT
+ -t 1.043809197 -s 6 -d 5 -p ack -e 76 -c 2 -a 0 -i 10 -k RTR 
- -t 1.043809197 -s 6 -d 5 -p ack -e 76 -c 2 -a 0 -i 10 -k RTR
h -t 1.043809197 -s 6 -d 5 -p ack -e 76 -c 2 -a 0 -i 10 -k RTR
r -t 1.044098813 -s 5 -d -1 -p ACK -e 38 -c 2 -a 0 -i 0 -k MAC
+ -t 1.044368197 -s 6 -d -1 -p RTS -e 44 -c 2 -a 0 -i 0 -k MAC 
- -t 1.044368197 -s 6 -d -1 -p RTS -e 44 -c 2 -a 0 -i 0 -k MAC
h -t 1.044368197 -s 6 -d -1 -p RTS -e 44 -c 2 -a 0 -i 0 -k MAC
r -t 1.044720813 -s 5 -d -1 -p RTS -e 44 -c 2 -a 0 -i 0 -k MAC
+ -t 1.044730813 -s 5 -d -1 -p CTS -e 38 -c 2 -a 0 -i 0 -k MAC 
- -t 1.044730813 -s 5 -d -1 -p CTS -e 38 -c 2 -a 0 -i 0 -k MAC
h -t 1.044730813 -s 5 -d -1 -p CTS -e 38 -c 2 -a 0 -i 0 -k MAC
r -t 1.045035428 -s 6 -d -1 -p CTS -e 38 -c 2 -a 0 -i 0 -k MAC
+ -t 1.045045428 -s 6 -d 5 -p ack -e 134 -c 2 -a 0 -i 8 -k MAC 
- -t 1.045045428 -s 6 -d 5 -p ack -e 134 -c 2 -a 0 -i 8 -k MAC
h -t 1.045045428 -s 6 -d 5 -p ack -e 134 -c 2 -a 0 -i 8 -k MAC
+ -t 1.045210509 -s 7 -d -1 -p DSR -e 32 -c 2 -a 0 -i 9 -k RTR 
- -t 1.045210509 -s 7 -d -1 -p DSR -e 32 -c 2 -a 0 -i 9 -k RTR
h -t 1.045210509 -s 7 -d -1 -p DSR -e 32 -c 2 -a 0 -i 9 -k RTR
r -t 1.046118044 -s 5 -d 5 -p ack -e 76 -c 2 -a 0 -i 8 -k MAC
+ -t 1.046128044 -s 5 -d -1 -p ACK -e 38 -c 2 -a 0 -i 0 -k MAC 
- -t 1.046128044 -s 5 -d -1 -p ACK -e 38 -c 2 -a 0 -i 0 -k MAC
h -t 1.046128044 -s 5 -d -1 -p ACK -e 38 -c 2 -a 0 -i 0 -k MAC
r -t 1.046143044 -s 5 -d 5 -p ack -e 40 -c 2 -a 0 -i 8 -k AGT
+ -t 1.046143044 -s 5 -d -1 -p tcp -e 1540 -c 2 -a 0 -i 11 -k AGT 
- -t 1.046143044 -s 5 -d -1 -p tcp -e 1540 -c 2 -a 0 -i 11 -k AGT
h -t 1.046143044 -s 5 -d -1 -p tcp -e 1540 -c 2 -a 0 -i 11 -k AGT
+ -t 1.046143044 -s 5 -d -1 -p tcp -e 1540 -c 2 -a 0 -i 12 -k AGT 
- -t 1.046143044 -s 5 -d -1 -p tcp -e 1540 -c 2 -a 0 -i 12 -k AGT
h -t 1.046143044 -s 5 -d -1 -p tcp -e 1540 -c 2 -a 0 -i 12 -k AGT
+ -t 1.046143044 -s 5 -d 6 -p tcp -e 1560 -c 2 -a 0 -i 11 -k RTR 
- -t 1.046143044 -s 5 -d 6 -p tcp -e 1560 -c 2 -a 0 -i 11 -k RTR
h -t 1.046143044 -s 5 -d 6 -p tcp -e 1560 -c 2 -a 0 -i 11 -k RTR
+ -t 1.046143044 -s 5 -d 6 -p tcp -e 1560 -c 2 -a 0 -i 12 -k RTR 
- -t 1.046143044 -s 5 -d 6 -p tcp -e 1560 -c 2 -a 0 -i 12 -k RTR
h -t 1.046143044 -s 5 -d 6 -p tcp -e 1560 -c 2 -a 0 -i 12 -k RTR
r -t 1.046432659 -s 6 -d -1 -p ACK -e 38 -c 2 -a 0 -i 0 -k MAC
+ -t 1.046762044 -s 5 -d -1 -p RTS -e 44 -c 2 -a 0 -i 0 -k MAC 
- -t 1.046762044 -s 5 -d -1 -p RTS -e 44 -c 2 -a 0 -i 0 -k MAC
h -t 1.046762044 -s 5 -d -1 -p RTS -e 44 -c 2 -a 0 -i 0 -k MAC
r -t 1.047114659 -s 6 -d -1 -p RTS -e 44 -c 2 -a 0 -i 0 -k MAC
+ -t 1.047124659 -s 6 -d -1 -p CTS -e 38 -c 2 -a 0 -i 0 -k MAC 
- -t 1.047124659 -s 6 -d -1 -p CTS -e 38 -c 2 -a 0 -i 0 -k MAC
h -t 1.047124659 -s 6 -d -1 -p CTS -e 38 -c 2 -a 0 -i 0 -k MAC
r -t 1.047429275 -s 5 -d -1 -p CTS -e 38 -c 2 -a 0 -i 0 -k MAC
+ -t 1.047439275 -s 5 -d 6 -p tcp -e 1618 -c 2 -a 0 -i 11 -k MAC 
- -t 1.047439275 -s 5 -d 6 -p tcp -e 1618 -c 2 -a 0 -i 11 -k MAC
h -t 1.047439275 -s 5 -d 6 -p tcp -e 1618 -c 2 -a 0 -i 11 -k MAC
r -t 1.060383890 -s 6 -d 6 -p tcp -e 1560 -c 2 -a 0 -i 11 -k MAC
+ -t 1.060393890 -s 6 -d -1 -p ACK -e 38 -c 2 -a 0 -i 0 -k MAC 
- -t 1.060393890 -s 6 -d -1 -p ACK -e 38 -c 2 -a 0 -i 0 -k MAC
h -t 1.060393890 -s 6 -d -1 -p ACK -e 38 -c 2 -a 0 -i 0 -k MAC
r -t 1.060408890 -s 6 -d 6 -p tcp -e 1540 -c 2 -a 0 -i 11 -k AGT
+ -t 1.060408890 -s 6 -d -1 -p ack -e 40 -c 2 -a 0 -i 13 -k AGT 
- -t 1.060408890 -s 6 -d -1 -p ack -e 40 -c 2 -a 0 -i 13 -k AGT
h -t 1.060408890 -s 6 -d -1 -p ack -e 40 -c 2 -a 0 -i 13 -k AGT
+ -t 1.060408890 -s 6 -d 5 -p ack -e 60 -c 2 -a 0 -i 13 -k RTR 
- -t 1.060408890 -s 6 -d 5 -p ack -e 60 -c 2 -a 0 -i 13 -k RTR
h -t 1.060408890 -s 6 -d 5 -p ack -e 60 -c 2 -a 0 -i 13 -k RTR
r -t 1.060698504 -s 5 -d -1 -p ACK -e 38 -c 2 -a 0 -i 0 -k MAC
+ -t 1.060768504 -s 5 -d -1 -p RTS -e 44 -c 2 -a 0 -i 0 -k MAC 
- -t 1.060768504 -s 5 -d -1 -p RTS -e 44 -c 2 -a 0 -i 0 -k MAC
h -t 1.060768504 -s 5 -d -1 -p RTS -e 44 -c 2 -a 0 -i 0 -k MAC
r -t 1.061121118 -s 6 -d -1 -p RTS -e 44 -c 2 -a 0 -i 0 -k MAC
+ -t 1.061131118 -s 6 -d -1 -p CTS -e 38 -c 2 -a 0 -i 0 -k MAC 
- -t 1.061131118 -s 6 -d -1 -p CTS -e 38 -c 2 -a 0 -i 0 -k MAC
h -t 1.061131118 -s 6 -d -1 -p CTS -e 38 -c 2 -a 0 -i 0 -k MAC
r -t 1.061435733 -s 5 -d -1 -p CTS -e 38 -c 2 -a 0 -i 0 -k MAC
+ -t 1.061445733 -s 5 -d 6 -p tcp -e 1618 -c 2 -a 0 -i 12 -k MAC 
- -t 1.061445733 -s 5 -d 6 -p tcp -e 1618 -c 2 -a 0 -i 12 -k MAC
h -t 1.061445733 -s 5 -d 6 -p tcp -e 1618 -c 2 -a 0 -i 12 -k MAC
r -t 1.074390347 -s 6 -d 6 -p tcp -e 1560 -c 2 -a 0 -i 12 -k MAC
+ -t 1.074400347 -s 6 -d -1 -p ACK -e 38 -c 2 -a 0 -i 0 -k MAC 
- -t 1.074400347 -s 6 -d -1 -p ACK -e 38 -c 2 -a 0 -i 0 -k MAC
h -t 1.074400347 -s 6 -d -1 -p ACK -e 38 -c 2 -a 0 -i 0 -k MAC
r -t 1.074415347 -s 6 -d 6 -p tcp -e 1540 -c 2 -a 0 -i 12 -k AGT
+ -t 1.074415347 -s 6 -d -1 -p ack -e 40 -c 2 -a 0 -i 14 -k AGT 
- -t 1.074415347 -s 6 -d -1 -p ack -e 40 -c 2 -a 0 -i 14 -k AGT
h -t 1.074415347 -s 6 -d -1 -p ack -e 40 -c 2 -a 0 -i 14 -k AGT
+ -t 1.074415347 -s 6 -d 5 -p ack -e 60 -c 2 -a 0 -i 14 -k RTR 
- -t 1.074415347 -s 6 -d 5 -p ack -e 60 -c 2 -a 0 -i 14 -k RTR
h -t 1.074415347 -s 6 -d 5 -p ack -e 60 -c 2 -a 0 -i 14 -k RTR
r -t 1.074704959 -s 5 -d -1 -p ACK -e 38 -c 2 -a 0 -i 0 -k MAC
+ -t 1.074794347 -s 6 -d -1 -p RTS -e 44 -c 2 -a 0 -i 0 -k MAC 
- -t 1.074794347 -s 6 -d -1 -p RTS -e 44 -c 2 -a 0 -i 0 -k MAC
h -t 1.074794347 -s 6 -d -1 -p RTS -e 44 -c 2 -a 0 -i 0 -k MAC
r -t 1.075146959 -s 5 -d -1 -p RTS -e 44 -c 2 -a 0 -i 0 -k MAC
+ -t 1.075156959 -s 5 -d -1 -p CTS -e 38 -c 2 -a 0 -i 0 -k MAC 
- -t 1.075156959 -s 5 -d -1 -p CTS -e 38 -c 2 -a 0 -i 0 -k MAC
h -t 1.075156959 -s 5 -d -1 -p CTS -e 38 -c 2 -a 0 -i 0 -k MAC
r -t 1.075461572 -s 6 -d -1 -p CTS -e 38 -c 2 -a 0 -i 0 -k MAC
+ -t 1.075471572 -s 6 -d 5 -p ack -e 134 -c 2 -a 0 -i 10 -k MAC 
- -t 1.075471572 -s 6 -d 5 -p ack -e 134 -c 2 -a 0 -i 10 -k MAC
h -t 1.075471572 -s 6 -d 5 -p ack -e 134 -c 2 -a 0 -i 10 -k MAC
r -t 1.076544185 -s 5 -d 5 -p ack -e 76 -c 2 -a 0 -i 10 -k MAC
+ -t 1.076554185 -s 5 -d -1 -p ACK -e 38 -c 2 -a 0 -i 0 -k MAC 
- -t 1.076554185 -s 5 -d -1 -p ACK -e 38 -c 2 -a 0 -i 0 -k MAC
h -t 1.076554185 -s 5 -d -1 -p ACK -e 38 -c 2 -a 0 -i 0 -k MAC
r -t 1.076569185 -s 5 -d 5 -p ack -e 40 -c 2 -a 0 -i 10 -k AGT
+ -t 1.076569185 -s 5 -d -1 -p tcp -e 1540 -c 2 -a 0 -i 15 -k AGT 
- -t 1.076569185 -s 5 -d -1 -p tcp -e 1540 -c 2 -a 0 -i 15 -k AGT
h -t 1.076569185 -s 5 -d -1 -p tcp -e 1540 -c 2 -a 0 -i 15 -k AGT
+ -t 1.076569185 -s 5 -d -1 -p tcp -e 1540 -c 2 -a 0 -i 16 -k AGT 
- -t 1.076569185 -s 5 -d -1 -p tcp -e 1540 -c 2 -a 0 -i 16 -k AGT
h -t 1.076569185 -s 5 -d -1 -p tcp -e 1540 -c 2 -a 0 -i 16 -k AGT
+ -t 1.076569185 -s 5 -d 6 -p tcp -e 1560 -c 2 -a 0 -i 15 -k RTR 
- -t 1.076569185 -s 5 -d 6 -p tcp -e 1560 -c 2 -a 0 -i 15 -k RTR
h -t 1.076569185 -s 5 -d 6 -p tcp -e 1560 -c 2 -a 0 -i 15 -k RTR
+ -t 1.076569185 -s 5 -d 6 -p tcp -e 1560 -c 2 -a 0 -i 16 -k RTR 
- -t 1.076569185 -s 5 -d 6 -p tcp -e 1560 -c 2 -a 0 -i 16 -k RTR
h -t 1.076569185 -s 5 -d 6 -p tcp -e 1560 -c 2 -a 0 -i 16 -k RTR
r -t 1.076858798 -s 6 -d -1 -p ACK -e 38 -c 2 -a 0 -i 0 -k MAC
+ -t 1.077168798 -s 6 -d -1 -p RTS -e 44 -c 2 -a 0 -i 0 -k MAC 
- -t 1.077168798 -s 6 -d -1 -p RTS -e 44 -c 2 -a 0 -i 0 -k MAC
h -t 1.077168798 -s 6 -d -1 -p RTS -e 44 -c 2 -a 0 -i 0 -k MAC
r -t 1.077521410 -s 5 -d -1 -p RTS -e 44 -c 2 -a 0 -i 0 -k MAC
+ -t 1.077531410 -s 5 -d -1 -p CTS -e 38 -c 2 -a 0 -i 0 -k MAC 
- -t 1.077531410 -s 5 -d -1 -p CTS -e 38 -c 2 -a 0 -i 0 -k MAC
h -t 1.077531410 -s 5 -d -1 -p CTS -e 38 -c 2 -a 0 -i 0 -k MAC
r -t 1.077836023 -s 6 -d -1 -p CTS -e 38 -c 2 -a 0 -i 0 -k MAC
+ -t 1.077846023 -s 6 -d 5 -p ack -e 118 -c 2 -a 0 -i 13 -k MAC 
- -t 1.077846023 -s 6 -d 5 -p ack -e 118 -c 2 -a 0 -i 13 -k MAC
h -t 1.077846023 -s 6 -d 5 -p ack -e 118 -c 2 -a 0 -i 13 -k MAC
r -t 1.078790635 -s 5 -d 5 -p ack -e 60 -c 2 -a 0 -i 13 -k MAC
+ -t 1.078800635 -s 5 -d -1 -p ACK -e 38 -c 2 -a 0 -i 0 -k MAC 
- -t 1.078800635 -s 5 -d -1 -p ACK -e 38 -c 2 -a 0 -i 0 -k MAC
h -t 1.078800635 -s 5 -d -1 -p ACK -e 38 -c 2 -a 0 -i 0 -k MAC
r -t 1.078815635 -s 5 -d 5 -p ack -e 40 -c 2 -a 0 -i 13 -k AGT
+ -t 1.078815635 -s 5 -d -1 -p tcp -e 1540 -c 2 -a 0 -i 17 -k AGT 
- -t 1.078815635 -s 5 -d -1 -p tcp -e 1540 -c 2 -a 0 -i 17 -k AGT
h -t 1.078815635 -s 5 -d -1 -p tcp -e 1540 -c 2 -a 0 -i 17 -k AGT
+ -t 1.078815635 -s 5 -d -1 -p tcp -e 1540 -c 2 -a 0 -i 18 -k AGT 
- -t 1.078815635 -s 5 -d -1 -p tcp -e 1540 -c 2 -a 0 -i 18 -k AGT
h -t 1.078815635 -s 5 -d -1 -p tcp -e 1540 -c 2 -a 0 -i 18 -k AGT
+ -t 1.078815635 -s 5 -d 6 -p tcp -e 1560 -c 2 -a 0 -i 17 -k RTR 
- -t 1.078815635 -s 5 -d 6 -p tcp -e 1560 -c 2 -a 0 -i 17 -k RTR
h -t 1.078815635 -s 5 -d 6 -p tcp -e 1560 -c 2 -a 0 -i 17 -k RTR
+ -t 1.078815635 -s 5 -d 6 -p tcp -e 1560 -c 2 -a 0 -i 18 -k RTR 
- -t 1.078815635 -s 5 -d 6 -p tcp -e 1560 -c 2 -a 0 -i 18 -k RTR
h -t 1.078815635 -s 5 -d 6 -p tcp -e 1560 -c 2 -a 0 -i 18 -k RTR
r -t 1.079105248 -s 6 -d -1 -p ACK -e 38 -c 2 -a 0 -i 0 -k MAC
+ -t 1.079374635 -s 5 -d -1 -p RTS -e 44 -c 2 -a 0 -i 0 -k MAC 
- -t 1.079374635 -s 5 -d -1 -p RTS -e 44 -c 2 -a 0 -i 0 -k MAC
h -t 1.079374635 -s 5 -d -1 -p RTS -e 44 -c 2 -a 0 -i 0 -k MAC
r -t 1.079727248 -s 6 -d -1 -p RTS -e 44 -c 2 -a 0 -i 0 -k MAC
+ -t 1.079737248 -s 6 -d -1 -p CTS -e 38 -c 2 -a 0 -i 0 -k MAC 
- -t 1.079737248 -s 6 -d -1 -p CTS -e 38 -c 2 -a 0 -i 0 -k MAC
h -t 1.079737248 -s 6 -d -1 -p CTS -e 38 -c 2 -a 0 -i 0 -k MAC
r -t 1.080041860 -s 5 -d -1 -p CTS -e 38 -c 2 -a 0 -i 0 -k MAC
+ -t 1.080051860 -s 5 -d 6 -p tcp -e 1618 -c 2 -a 0 -i 15 -k MAC 
- -t 1.080051860 -s 5 -d 6 -p tcp -e 1618 -c 2 -a 0 -i 15 -k MAC
h -t 1.080051860 -s 5 -d 6 -p tcp -e 1618 -c 2 -a 0 -i 15 -k MAC
r -t 1.092996472 -s 6 -d 6 -p tcp -e 1560 -c 2 -a 0 -i 15 -k MAC
+ -t 1.093006472 -s 6 -d -1 -p ACK -e 38 -c 2 -a 0 -i 0 -k MAC 
- -t 1.093006472 -s 6 -d -1 -p ACK -e 38 -c 2 -a 0 -i 0 -k MAC
h -t 1.093006472 -s 6 -d -1 -p ACK -e 38 -c 2 -a 0 -i 0 -k MAC
r -t 1.093021472 -s 6 -d 6 -p tcp -e 1540 -c 2 -a 0 -i 15 -k AGT
+ -t 1.093021472 -s 6 -d -1 -p ack -e 40 -c 2 -a 0 -i 20 -k AGT 
- -t 1.093021472 -s 6 -d -1 -p ack -e 40 -c 2 -a 0 -i 20 -k AGT
h -t 1.093021472 -s 6 -d -1 -p ack -e 40 -c 2 -a 0 -i 20 -k AGT
+ -t 1.093021472 -s 6 -d 5 -p ack -e 60 -c 2 -a 0 -i 20 -k RTR 
- -t 1.093021472 -s 6 -d 5 -p ack -e 60 -c 2 -a 0 -i 20 -k RTR
h -t 1.093021472 -s 6 -d 5 -p ack -e 60 -c 2 -a 0 -i 20 -k RTR
r -t 1.093311083 -s 5 -d -1 -p ACK -e 38 -c 2 -a 0 -i 0 -k MAC
+ -t 1.093401083 -s 5 -d -1 -p RTS -e 44 -c 2 -a 0 -i 0 -k MAC 
- -t 1.093401083 -s 5 -d -1 -p RTS -e 44 -c 2 -a 0 -i 0 -k MAC
h -t 1.093401083 -s 5 -d -1 -p RTS -e 44 -c 2 -a 0 -i 0 -k MAC
r -t 1.093753694 -s 6 -d -1 -p RTS -e 44 -c 2 -a 0 -i 0 -k MAC
+ -t 1.093763694 -s 6 -d -1 -p CTS -e 38 -c 2 -a 0 -i 0 -k MAC 
- -t 1.093763694 -s 6 -d -1 -p CTS -e 38 -c 2 -a 0 -i 0 -k MAC
h -t 1.093763694 -s 6 -d -1 -p CTS -e 38 -c 2 -a 0 -i 0 -k MAC
r -t 1.094068305 -s 5 -d -1 -p CTS -e 38 -c 2 -a 0 -i 0 -k MAC
+ -t 1.094078305 -s 5 -d 6 -p tcp -e 1618 -c 2 -a 0 -i 16 -k MAC 
- -t 1.094078305 -s 5 -d 6 -p tcp -e 1618 -c 2 -a 0 -i 16 -k MAC
h -t 1.094078305 -s 5 -d 6 -p tcp -e 1618 -c 2 -a 0 -i 16 -k MAC
r -t 1.107022916 -s 6 -d 6 -p tcp -e 1560 -c 2 -a 0 -i 16 -k MAC
+ -t 1.107032916 -s 6 -d -1 -p ACK -e 38 -c 2 -a 0 -i 0 -k MAC 
- -t 1.107032916 -s 6 -d -1 -p ACK -e 38 -c 2 -a 0 -i 0 -k MAC
h -t 1.107032916 -s 6 -d -1 -p ACK -e 38 -c 2 -a 0 -i 0 -k MAC
r -t 1.107047916 -s 6 -d 6 -p tcp -e 1540 -c 2 -a 0 -i 16 -k AGT
+ -t 1.107047916 -s 6 -d -1 -p ack -e 40 -c 2 -a 0 -i 21 -k AGT 
- -t 1.107047916 -s 6 -d -1 -p ack -e 40 -c 2 -a 0 -i 21 -k AGT
h -t 1.107047916 -s 6 -d -1 -p ack -e 40 -c 2 -a 0 -i 21 -k AGT
+ -t 1.107047916 -s 6 -d 5 -p ack -e 60 -c 2 -a 0 -i 21 -k RTR 
- -t 1.107047916 -s 6 -d 5 -p ack -e 60 -c 2 -a 0 -i 21 -k RTR
h -t 1.107047916 -s 6 -d 5 -p ack -e 60 -c 2 -a 0 -i 21 -k RTR
r -t 1.107337526 -s 5 -d -1 -p ACK -e 38 -c 2 -a 0 -i 0 -k MAC
+ -t 1.107437174 -s 7 -d -1 -p DSR -e 90 -c 2 -a 0 -i 9 -k MAC 
- -t 1.107437174 -s 7 -d -1 -p DSR -e 90 -c 2 -a 0 -i 9 -k MAC
h -t 1.107437174 -s 7 -d -1 -p DSR -e 90 -c 2 -a 0 -i 9 -k MAC
r -t 1.108157519 -s 3 -d -1 -p DSR -e 32 -c 2 -a 0 -i 9 -k MAC
r -t 1.108157697 -s 1 -d -1 -p DSR -e 32 -c 2 -a 0 -i 9 -k MAC
r -t 1.108157715 -s 8 -d -1 -p DSR -e 32 -c 2 -a 0 -i 9 -k MAC
r -t 1.108157890 -s 6 -d -1 -p DSR -e 32 -c 2 -a 0 -i 9 -k MAC
+ -t 1.108367890 -s 6 -d -1 -p RTS -e 44 -c 2 -a 0 -i 0 -k MAC 
- -t 1.108367890 -s 6 -d -1 -p RTS -e 44 -c 2 -a 0 -i 0 -k MAC
h -t 1.108367890 -s 6 -d -1 -p RTS -e 44 -c 2 -a 0 -i 0 -k MAC
r -t 1.108720500 -s 5 -d -1 -p RTS -e 44 -c 2 -a 0 -i 0 -k MAC
+ -t 1.108730500 -s 5 -d -1 -p CTS -e 38 -c 2 -a 0 -i 0 -k MAC 
- -t 1.108730500 -s 5 -d -1 -p CTS -e 38 -c 2 -a 0 -i 0 -k MAC
h -t 1.108730500 -s 5 -d -1 -p CTS -e 38 -c 2 -a 0 -i 0 -k MAC
r -t 1.109035109 -s 6 -d -1 -p CTS -e 38 -c 2 -a 0 -i 0 -k MAC
+ -t 1.109045109 -s 6 -d 5 -p ack -e 118 -c 2 -a 0 -i 14 -k MAC 
- -t 1.109045109 -s 6 -d 5 -p ack -e 118 -c 2 -a 0 -i 14 -k MAC
h -t 1.109045109 -s 6 -d 5 -p ack -e 118 -c 2 -a 0 -i 14 -k MAC
+ -t 1.109427845 -s 3 -d -1 -p DSR -e 48 -c 2 -a 0 -i 9 -k RTR 
- -t 1.109427845 -s 3 -d -1 -p DSR -e 48 -c 2 -a 0 -i 9 -k RTR
h -t 1.109427845 -s 3 -d -1 -p DSR -e 48 -c 2 -a 0 -i 9 -k RTR
r -t 1.109989719 -s 5 -d 5 -p ack -e 60 -c 2 -a 0 -i 14 -k MAC
+ -t 1.109999719 -s 5 -d -1 -p ACK -e 38 -c 2 -a 0 -i 0 -k MAC 
- -t 1.109999719 -s 5 -d -1 -p ACK -e 38 -c 2 -a 0 -i 0 -k MAC
h -t 1.109999719 -s 5 -d -1 -p ACK -e 38 -c 2 -a 0 -i 0 -k MAC
r -t 1.110014719 -s 5 -d 5 -p ack -e 40 -c 2 -a 0 -i 14 -k AGT
+ -t 1.110014719 -s 5 -d -1 -p tcp -e 1540 -c 2 -a 0 -i 22 -k AGT 
- -t 1.110014719 -s 5 -d -1 -p tcp -e 1540 -c 2 -a 0 -i 22 -k AGT
h -t 1.110014719 -s 5 -d -1 -p tcp -e 1540 -c 2 -a 0 -i 22 -k AGT
+ -t 1.110014719 -s 5 -d -1 -p tcp -e 1540 -c 2 -a 0 -i 23 -k AGT 
- -t 1.110014719 -s 5 -d -1 -p tcp -e 1540 -c 2 -a 0 -i 23 -k AGT
h -t 1.110014719 -s 5 -d -1 -p tcp -e 1540 -c 2 -a 0 -i 23 -k AGT
+ -t 1.110014719 -s 5 -d 6 -p tcp -e 1560 -c 2 -a 0 -i 22 -k RTR 
- -t 1.110014719 -s 5 -d 6 -p tcp -e 1560 -c 2 -a 0 -i 22 -k RTR
h -t 1.110014719 -s 5 -d 6 -p tcp -e 1560 -c 2 -a 0 -i 22 -k RTR
+ -t 1.110014719 -s 5 -d 6 -p tcp -e 1560 -c 2 -a 0 -i 23 -k RTR 
- -t 1.110014719 -s 5 -d 6 -p tcp -e 1560 -c 2 -a 0 -i 23 -k RTR
h -t 1.110014719 -s 5 -d 6 -p tcp -e 1560 -c 2 -a 0 -i 23 -k RTR
r -t 1.110304328 -s 6 -d -1 -p ACK -e 38 -c 2 -a 0 -i 0 -k MAC
+ -t 1.110394328 -s 6 -d -1 -p RTS -e 44 -c 2 -a 0 -i 0 -k MAC 
- -t 1.110394328 -s 6 -d -1 -p RTS -e 44 -c 2 -a 0 -i 0 -k MAC
h -t 1.110394328 -s 6 -d -1 -p RTS -e 44 -c 2 -a 0 -i 0 -k MAC
+ -t 1.110739428 -s 8 -d -1 -p DSR -e 48 -c 2 -a 0 -i 9 -k RTR 
- -t 1.110739428 -s 8 -d -1 -p DSR -e 48 -c 2 -a 0 -i 9 -k RTR
h -t 1.110739428 -s 8 -d -1 -p DSR -e 48 -c 2 -a 0 -i 9 -k RTR
r -t 1.110746938 -s 5 -d -1 -p RTS -e 44 -c 2 -a 0 -i 0 -k MAC
+ -t 1.110756938 -s 5 -d -1 -p CTS -e 38 -c 2 -a 0 -i 0 -k MAC 
- -t 1.110756938 -s 5 -d -1 -p CTS -e 38 -c 2 -a 0 -i 0 -k MAC
h -t 1.110756938 -s 5 -d -1 -p CTS -e 38 -c 2 -a 0 -i 0 -k MAC
r -t 1.111061547 -s 6 -d -1 -p CTS -e 38 -c 2 -a 0 -i 0 -k MAC
+ -t 1.111071547 -s 6 -d 5 -p ack -e 118 -c 2 -a 0 -i 20 -k MAC 
- -t 1.111071547 -s 6 -d 5 -p ack -e 118 -c 2 -a 0 -i 20 -k MAC
h -t 1.111071547 -s 6 -d 5 -p ack -e 118 -c 2 -a 0 -i 20 -k MAC
r -t 1.112016157 -s 5 -d 5 -p ack -e 60 -c 2 -a 0 -i 20 -k MAC
+ -t 1.112026157 -s 5 -d -1 -p ACK -e 38 -c 2 -a 0 -i 0 -k MAC 
- -t 1.112026157 -s 5 -d -1 -p ACK -e 38 -c 2 -a 0 -i 0 -k MAC
h -t 1.112026157 -s 5 -d -1 -p ACK -e 38 -c 2 -a 0 -i 0 -k MAC
r -t 1.112041157 -s 5 -d 5 -p ack -e 40 -c 2 -a 0 -i 20 -k AGT
+ -t 1.112041157 -s 5 -d -1 -p tcp -e 1540 -c 2 -a 0 -i 24 -k AGT 
- -t 1.112041157 -s 5 -d -1 -p tcp -e 1540 -c 2 -a 0 -i 24 -k AGT
h -t 1.112041157 -s 5 -d -1 -p tcp -e 1540 -c 2 -a 0 -i 24 -k AGT
+ -t 1.112041157 -s 5 -d -1 -p tcp -e 1540 -c 2 -a 0 -i 25 -k AGT 
- -t 1.112041157 -s 5 -d -1 -p tcp -e 1540 -c 2 -a 0 -i 25 -k AGT
h -t 1.112041157 -s 5 -d -1 -p tcp -e 1540 -c 2 -a 0 -i 25 -k AGT
+ -t 1.112041157 -s 5 -d 6 -p tcp -e 1560 -c 2 -a 0 -i 24 -k RTR 
- -t 1.112041157 -s 5 -d 6 -p tcp -e 1560 -c 2 -a 0 -i 24 -k RTR
h -t 1.112041157 -s 5 -d 6 -p tcp -e 1560 -c 2 -a 0 -i 24 -k RTR
+ -t 1.112041157 -s 5 -d 6 -p tcp -e 1560 -c 2 -a 0 -i 25 -k RTR 
- -t 1.112041157 -s 5 -d 6 -p tcp -e 1560 -c 2 -a 0 -i 25 -k RTR
h -t 1.112041157 -s 5 -d 6 -p tcp -e 1560 -c 2 -a 0 -i 25 -k RTR
r -t 1.112330766 -s 6 -d -1 -p ACK -e 38 -c 2 -a 0 -i 0 -k MAC
+ -t 1.112402250 -s 6 -d -1 -p DSR -e 48 -c 2 -a 0 -i 9 -k RTR 
- -t 1.112402250 -s 6 -d -1 -p DSR -e 48 -c 2 -a 0 -i 9 -k RTR
h -t 1.112402250 -s 6 -d -1 -p DSR -e 48 -c 2 -a 0 -i 9 -k RTR
+ -t 1.112420766 -s 6 -d -1 -p RTS -e 44 -c 2 -a 0 -i 0 -k MAC 
- -t 1.112420766 -s 6 -d -1 -p RTS -e 44 -c 2 -a 0 -i 0 -k MAC
h -t 1.112420766 -s 6 -d -1 -p RTS -e 44 -c 2 -a 0 -i 0 -k MAC
r -t 1.112773375 -s 5 -d -1 -p RTS -e 44 -c 2 -a 0 -i 0 -k MAC
+ -t 1.112783375 -s 5 -d -1 -p CTS -e 38 -c 2 -a 0 -i 0 -k MAC 
- -t 1.112783375 -s 5 -d -1 -p CTS -e 38 -c 2 -a 0 -i 0 -k MAC
h -t 1.112783375 -s 5 -d -1 -p CTS -e 38 -c 2 -a 0 -i 0 -k MAC
+ -t 1.112836829 -s 1 -d -1 -p DSR -e 48 -c 2 -a 0 -i 9 -k RTR 
- -t 1.112836829 -s 1 -d -1 -p DSR -e 48 -c 2 -a 0 -i 9 -k RTR
h -t 1.112836829 -s 1 -d -1 -p DSR -e 48 -c 2 -a 0 -i 9 -k RTR
r -t 1.113087984 -s 6 -d -1 -p CTS -e 38 -c 2 -a 0 -i 0 -k MAC
+ -t 1.113097984 -s 6 -d 5 -p ack -e 118 -c 2 -a 0 -i 21 -k MAC 
- -t 1.113097984 -s 6 -d 5 -p ack -e 118 -c 2 -a 0 -i 21 -k MAC
h -t 1.113097984 -s 6 -d 5 -p ack -e 118 -c 2 -a 0 -i 21 -k MAC
r -t 1.114042593 -s 5 -d 5 -p ack -e 60 -c 2 -a 0 -i 21 -k MAC